ANIMSTEPS   6
CRYSTAL
PRIMVEC
   -2.771549755    0.000000000    2.771549755
    0.000000000    2.771549755    2.771549755
   -2.771549755    2.771549755    0.000000000
PRIMCOORD  1
      2   1
   Ga     0.00000   0.00000   0.00000   0.00000  -0.05037  -0.04963
   As    -1.38577   1.38577   1.38577   0.00000  -0.05037  -0.04963
PRIMCOORD  2
      2   1
   Ga     0.00000   0.00000   0.00000  -0.07071  -0.00000  -0.00000
   As    -1.38577   1.38577   1.38577  -0.07071  -0.00000  -0.00000
PRIMCOORD  3
      2   1
   Ga     0.00000   0.00000   0.00000   0.00000  -0.04963   0.05037
   As    -1.38577   1.38577   1.38577   0.00000  -0.04963   0.05037
PRIMCOORD  4
      2   1
   Ga     0.00000   0.00000   0.00000   0.00000  -0.00000   0.07321
   As    -1.38577   1.38577   1.38577   0.00000   0.00000  -0.06812
PRIMCOORD  5
      2   1
   Ga     0.00000   0.00000   0.00000   0.00000   0.07321   0.00000
   As    -1.38577   1.38577   1.38577   0.00000  -0.06812   0.00000
PRIMCOORD  6
      2   1
   Ga     0.00000   0.00000   0.00000  -0.07321   0.00000   0.00000
   As    -1.38577   1.38577   1.38577   0.06812   0.00000   0.00000
