[Molden Format]
[FREQ]
    0.00
    0.00
    0.00
  275.67
  275.67
  295.77
[FR-COORD]
   Ga          0.00000        0.00000        0.00000
   As         -2.61874        2.61874        2.61874
[FR-NORM-COORD]
 vibration     1
   0.00000  -0.50371  -0.49626
   0.00000  -0.50371  -0.49626
 vibration     2
  -0.70711  -0.00000  -0.00000
  -0.70711  -0.00000  -0.00000
 vibration     3
   0.00000  -0.49626   0.50371
   0.00000  -0.49626   0.50371
 vibration     4
   0.00000  -0.00000   0.73206
   0.00000   0.00000  -0.68125
 vibration     5
   0.00000   0.73206   0.00000
   0.00000  -0.68125   0.00000
 vibration     6
  -0.73206   0.00000   0.00000
   0.68125   0.00000   0.00000
