TACC:  Starting up job 4477962 
TACC:  Starting parallel tasks... 

     Program PWSCF v.7.0 starts on 10Jun2022 at 21: 7:31 

     This program is part of the open-source Quantum ESPRESSO suite
     for quantum simulation of materials; please cite
         "P. Giannozzi et al., J. Phys.:Condens. Matter 21 395502 (2009);
         "P. Giannozzi et al., J. Phys.:Condens. Matter 29 465901 (2017);
         "P. Giannozzi et al., J. Chem. Phys. 152 154105 (2020);
          URL http://www.quantum-espresso.org", 
     in publications or presentations arising from this work. More details at
     http://www.quantum-espresso.org/quote

     Parallel version (MPI), running on  1024 processors

     MPI processes distributed on    20 nodes
     K-points division:     npool     =    1024
     180877 MiB available memory on the printing compute node when the environment starts
 
     Reading input from scf.in

     Current dimensions of program PWSCF are:
     Max number of different atomic species (ntypx) = 10
     Max number of k-points (npk) =  40000
     Max angular momentum in pseudopotentials (lmaxx) =  4
     Message from routine divide_et_impera:
     suboptimal parallelization: some nodes have no k-points

     Subspace diagonalization in iterative solution of the eigenvalue problem:
     a serial algorithm will be used

 
     G-vector sticks info
     --------------------
     sticks:   dense  smooth     PW     G-vecs:    dense   smooth      PW
     Sum         583     583    187               115283   115283   20849
 
     Using Slab Decomposition
 


     bravais-lattice index     =            4
     lattice parameter (alat)  =       4.6169  a.u.
     unit-cell volume          =     852.2795 (a.u.)^3
     number of atoms/cell      =            2
     number of atomic types    =            1
     number of electrons       =         8.00
     number of Kohn-Sham states=            8
     kinetic-energy cutoff     =     100.0000  Ry
     charge density cutoff     =     400.0000  Ry
     scf convergence threshold =      1.0E-12
     mixing beta               =       0.7000
     number of iterations used =            8  plain     mixing
     Exchange-correlation= SLA  PW   NOGX NOGC
                           (   1   4   0   0   0   0   0)

     celldm(1)=   4.616900  celldm(2)=   0.000000  celldm(3)=  10.000000
     celldm(4)=   0.000000  celldm(5)=   0.000000  celldm(6)=   0.000000

     crystal axes: (cart. coord. in units of alat)
               a(1) = (   1.000000   0.000000   0.000000 )  
               a(2) = (  -0.500000   0.866025   0.000000 )  
               a(3) = (   0.000000   0.000000  10.000000 )  

     reciprocal axes: (cart. coord. in units 2 pi/alat)
               b(1) = (  1.000000  0.577350  0.000000 )  
               b(2) = (  0.000000  1.154701  0.000000 )  
               b(3) = (  0.000000  0.000000  0.100000 )  


     PseudoPot. # 1 for C  read from file:
     ../pseudo/C.upf
     MD5 check sum: c9bd9c91d9c48f3c1b9c51e450525728
     Pseudo is Norm-conserving + core correction, Zval =  4.0
     Generated using ONCVPSP code by D. R. Hamann
     Using radial grid of 1234 points,  4 beta functions with: 
                l(1) =   0
                l(2) =   0
                l(3) =   1
                l(4) =   1

     atomic species   valence    mass     pseudopotential
        C              4.00    12.01100     C ( 1.00)

     24 Sym. Ops., with inversion, found


                                    s                        frac. trans.

      isym =  1     identity                                     

 cryst.   s( 1) = (     1          0          0      )
                  (     0          1          0      )
                  (     0          0          1      )

 cart.    s( 1) = (  1.0000000  0.0000000  0.0000000 )
                  (  0.0000000  1.0000000  0.0000000 )
                  (  0.0000000  0.0000000  1.0000000 )


      isym =  2     180 deg rotation - cart. axis [0,0,1]        

 cryst.   s( 2) = (    -1          0          0      )
                  (     0         -1          0      )
                  (     0          0          1      )

 cart.    s( 2) = ( -1.0000000  0.0000000  0.0000000 )
                  (  0.0000000 -1.0000000  0.0000000 )
                  (  0.0000000  0.0000000  1.0000000 )


      isym =  3     180 deg rotation - cart. axis [0,1,0]        

 cryst.   s( 3) = (    -1          0          0      )
                  (     1          1          0      )
                  (     0          0         -1      )

 cart.    s( 3) = ( -1.0000000  0.0000000  0.0000000 )
                  (  0.0000000  1.0000000  0.0000000 )
                  (  0.0000000  0.0000000 -1.0000000 )


      isym =  4     180 deg rotation - cart. axis [1,0,0]        

 cryst.   s( 4) = (     1          0          0      )
                  (    -1         -1          0      )
                  (     0          0         -1      )

 cart.    s( 4) = (  1.0000000  0.0000000  0.0000000 )
                  (  0.0000000 -1.0000000  0.0000000 )
                  (  0.0000000  0.0000000 -1.0000000 )


      isym =  5      60 deg rotation - cryst. axis [0,0,1]       

 cryst.   s( 5) = (     1          1          0      )
                  (    -1          0          0      )
                  (     0          0          1      )

 cart.    s( 5) = (  0.5000000 -0.8660254  0.0000000 )
                  (  0.8660254  0.5000000  0.0000000 )
                  (  0.0000000  0.0000000  1.0000000 )


      isym =  6      60 deg rotation - cryst. axis [0,0,-1]      

 cryst.   s( 6) = (     0         -1          0      )
                  (     1          1          0      )
                  (     0          0          1      )

 cart.    s( 6) = (  0.5000000  0.8660254  0.0000000 )
                  ( -0.8660254  0.5000000  0.0000000 )
                  (  0.0000000  0.0000000  1.0000000 )


      isym =  7     120 deg rotation - cryst. axis [0,0,1]       

 cryst.   s( 7) = (     0          1          0      )
                  (    -1         -1          0      )
                  (     0          0          1      )

 cart.    s( 7) = ( -0.5000000 -0.8660254  0.0000000 )
                  (  0.8660254 -0.5000000  0.0000000 )
                  (  0.0000000  0.0000000  1.0000000 )


      isym =  8     120 deg rotation - cryst. axis [0,0,-1]      

 cryst.   s( 8) = (    -1         -1          0      )
                  (     1          0          0      )
                  (     0          0          1      )

 cart.    s( 8) = ( -0.5000000  0.8660254  0.0000000 )
                  ( -0.8660254 -0.5000000  0.0000000 )
                  (  0.0000000  0.0000000  1.0000000 )


      isym =  9     180 deg rotation - cryst. axis [1,-1,0]      

 cryst.   s( 9) = (     0         -1          0      )
                  (    -1          0          0      )
                  (     0          0         -1      )

 cart.    s( 9) = (  0.5000000 -0.8660254  0.0000000 )
                  ( -0.8660254 -0.5000000  0.0000000 )
                  (  0.0000000  0.0000000 -1.0000000 )


      isym = 10     180 deg rotation - cryst. axis [2,1,0]       

 cryst.   s(10) = (     1          1          0      )
                  (     0         -1          0      )
                  (     0          0         -1      )

 cart.    s(10) = (  0.5000000  0.8660254  0.0000000 )
                  (  0.8660254 -0.5000000  0.0000000 )
                  (  0.0000000  0.0000000 -1.0000000 )


      isym = 11     180 deg rotation - cryst. axis [0,1,0]       

 cryst.   s(11) = (    -1         -1          0      )
                  (     0          1          0      )
                  (     0          0         -1      )

 cart.    s(11) = ( -0.5000000 -0.8660254  0.0000000 )
                  ( -0.8660254  0.5000000  0.0000000 )
                  (  0.0000000  0.0000000 -1.0000000 )


      isym = 12     180 deg rotation - cryst. axis [1,1,0]       

 cryst.   s(12) = (     0          1          0      )
                  (     1          0          0      )
                  (     0          0         -1      )

 cart.    s(12) = ( -0.5000000  0.8660254  0.0000000 )
                  (  0.8660254  0.5000000  0.0000000 )
                  (  0.0000000  0.0000000 -1.0000000 )


      isym = 13     inversion                                    

 cryst.   s(13) = (    -1          0          0      )
                  (     0         -1          0      )
                  (     0          0         -1      )

 cart.    s(13) = ( -1.0000000  0.0000000  0.0000000 )
                  (  0.0000000 -1.0000000  0.0000000 )
                  (  0.0000000  0.0000000 -1.0000000 )


      isym = 14     inv. 180 deg rotation - cart. axis [0,0,1]   

 cryst.   s(14) = (     1          0          0      )
                  (     0          1          0      )
                  (     0          0         -1      )

 cart.    s(14) = (  1.0000000  0.0000000  0.0000000 )
                  (  0.0000000  1.0000000  0.0000000 )
                  (  0.0000000  0.0000000 -1.0000000 )


      isym = 15     inv. 180 deg rotation - cart. axis [0,1,0]   

 cryst.   s(15) = (     1          0          0      )
                  (    -1         -1          0      )
                  (     0          0          1      )

 cart.    s(15) = (  1.0000000  0.0000000  0.0000000 )
                  (  0.0000000 -1.0000000  0.0000000 )
                  (  0.0000000  0.0000000  1.0000000 )


      isym = 16     inv. 180 deg rotation - cart. axis [1,0,0]   

 cryst.   s(16) = (    -1          0          0      )
                  (     1          1          0      )
                  (     0          0          1      )

 cart.    s(16) = ( -1.0000000  0.0000000  0.0000000 )
                  (  0.0000000  1.0000000  0.0000000 )
                  (  0.0000000  0.0000000  1.0000000 )


      isym = 17     inv.  60 deg rotation - cryst. axis [0,0,1]  

 cryst.   s(17) = (    -1         -1          0      )
                  (     1          0          0      )
                  (     0          0         -1      )

 cart.    s(17) = ( -0.5000000  0.8660254  0.0000000 )
                  ( -0.8660254 -0.5000000  0.0000000 )
                  (  0.0000000  0.0000000 -1.0000000 )


      isym = 18     inv.  60 deg rotation - cryst. axis [0,0,-1] 

 cryst.   s(18) = (     0          1          0      )
                  (    -1         -1          0      )
                  (     0          0         -1      )

 cart.    s(18) = ( -0.5000000 -0.8660254  0.0000000 )
                  (  0.8660254 -0.5000000  0.0000000 )
                  (  0.0000000  0.0000000 -1.0000000 )


      isym = 19     inv. 120 deg rotation - cryst. axis [0,0,1]  

 cryst.   s(19) = (     0         -1          0      )
                  (     1          1          0      )
                  (     0          0         -1      )

 cart.    s(19) = (  0.5000000  0.8660254  0.0000000 )
                  ( -0.8660254  0.5000000  0.0000000 )
                  (  0.0000000  0.0000000 -1.0000000 )


      isym = 20     inv. 120 deg rotation - cryst. axis [0,0,-1] 

 cryst.   s(20) = (     1          1          0      )
                  (    -1          0          0      )
                  (     0          0         -1      )

 cart.    s(20) = (  0.5000000 -0.8660254  0.0000000 )
                  (  0.8660254  0.5000000  0.0000000 )
                  (  0.0000000  0.0000000 -1.0000000 )


      isym = 21     inv. 180 deg rotation - cryst. axis [1,-1,0] 

 cryst.   s(21) = (     0          1          0      )
                  (     1          0          0      )
                  (     0          0          1      )

 cart.    s(21) = ( -0.5000000  0.8660254  0.0000000 )
                  (  0.8660254  0.5000000  0.0000000 )
                  (  0.0000000  0.0000000  1.0000000 )


      isym = 22     inv. 180 deg rotation - cryst. axis [2,1,0]  

 cryst.   s(22) = (    -1         -1          0      )
                  (     0          1          0      )
                  (     0          0          1      )

 cart.    s(22) = ( -0.5000000 -0.8660254  0.0000000 )
                  ( -0.8660254  0.5000000  0.0000000 )
                  (  0.0000000  0.0000000  1.0000000 )


      isym = 23     inv. 180 deg rotation - cryst. axis [0,1,0]  

 cryst.   s(23) = (     1          1          0      )
                  (     0         -1          0      )
                  (     0          0          1      )

 cart.    s(23) = (  0.5000000  0.8660254  0.0000000 )
                  (  0.8660254 -0.5000000  0.0000000 )
                  (  0.0000000  0.0000000  1.0000000 )


      isym = 24     inv. 180 deg rotation - cryst. axis [1,1,0]  

 cryst.   s(24) = (     0         -1          0      )
                  (    -1          0          0      )
                  (     0          0          1      )

 cart.    s(24) = (  0.5000000 -0.8660254  0.0000000 )
                  ( -0.8660254 -0.5000000  0.0000000 )
                  (  0.0000000  0.0000000  1.0000000 )


     point group D_6h(6/mmm)
     there are 12 classes
     the character table:

       E     2C6   2C3   C2    3C2'  3C2'' i     2S3   2S6   s_h   3s_d  3s_v 
A_1g   1.00  1.00  1.00  1.00  1.00  1.00  1.00  1.00  1.00  1.00  1.00  1.00
A_2g   1.00  1.00  1.00  1.00 -1.00 -1.00  1.00  1.00  1.00  1.00 -1.00 -1.00
B_1g   1.00 -1.00  1.00 -1.00  1.00 -1.00  1.00 -1.00  1.00 -1.00  1.00 -1.00
B_2g   1.00 -1.00  1.00 -1.00 -1.00  1.00  1.00 -1.00  1.00 -1.00 -1.00  1.00
E_1g   2.00  1.00 -1.00 -2.00  0.00  0.00  2.00  1.00 -1.00 -2.00  0.00  0.00
E_2g   2.00 -1.00 -1.00  2.00  0.00  0.00  2.00 -1.00 -1.00  2.00  0.00  0.00
A_1u   1.00  1.00  1.00  1.00  1.00  1.00 -1.00 -1.00 -1.00 -1.00 -1.00 -1.00
A_2u   1.00  1.00  1.00  1.00 -1.00 -1.00 -1.00 -1.00 -1.00 -1.00  1.00  1.00
B_1u   1.00 -1.00  1.00 -1.00  1.00 -1.00 -1.00  1.00 -1.00  1.00 -1.00  1.00
B_2u   1.00 -1.00  1.00 -1.00 -1.00  1.00 -1.00  1.00 -1.00  1.00  1.00 -1.00
E_1u   2.00  1.00 -1.00 -2.00  0.00  0.00 -2.00 -1.00  1.00  2.00  0.00  0.00
E_2u   2.00 -1.00 -1.00  2.00  0.00  0.00 -2.00  1.00  1.00 -2.00  0.00  0.00

     the symmetry operations in each class and the name of the first element:

     E        1
          identity                                               
     2C6      5    6
           60 deg rotation - cryst. axis [0,0,1]                 
     2C3      7    8
          120 deg rotation - cryst. axis [0,0,1]                 
     C2       2
          180 deg rotation - cart. axis [0,0,1]                  
     3C2'     4   12   11
          180 deg rotation - cart. axis [1,0,0]                  
     3C2''    3    9   10
          180 deg rotation - cart. axis [0,1,0]                  
     i       13
          inversion                                              
     2S3     17   18
          inv.  60 deg rotation - cryst. axis [0,0,1]            
     2S6     19   20
          inv. 120 deg rotation - cryst. axis [0,0,1]            
     s_h     14
          inv. 180 deg rotation - cart. axis [0,0,1]             
     3s_d    16   24   23
          inv. 180 deg rotation - cart. axis [1,0,0]             
     3s_v    15   21   22
          inv. 180 deg rotation - cart. axis [0,1,0]             

   Cartesian axes

     site n.     atom                  positions (alat units)
         1           C   tau(   1) = (   0.0000000   0.5773503   0.0000000  )
         2           C   tau(   2) = (   0.5000000   0.2886751   0.0000000  )

   Crystallographic axes

     site n.     atom                  positions (cryst. coord.)
         1           C   tau(   1) = (  0.3333333  0.6666667  0.0000000  )
         2           C   tau(   2) = (  0.6666667  0.3333333  0.0000000  )

     number of k points=   272  Methfessel-Paxton smearing, width (Ry)=  0.0050
                       cart. coord. in units 2pi/alat
        k(    1) = (   0.0156250   0.0270633   0.0000000), wk =   0.0039062
        k(    2) = (   0.0156250   0.0631477   0.0000000), wk =   0.0078125
        k(    3) = (   0.0156250   0.0992321   0.0000000), wk =   0.0078125
        k(    4) = (   0.0156250   0.1353165   0.0000000), wk =   0.0078125
        k(    5) = (   0.0156250   0.1714009   0.0000000), wk =   0.0078125
        k(    6) = (   0.0156250   0.2074853   0.0000000), wk =   0.0078125
        k(    7) = (   0.0156250   0.2435696   0.0000000), wk =   0.0078125
        k(    8) = (   0.0156250   0.2796540   0.0000000), wk =   0.0078125
        k(    9) = (   0.0156250   0.3157384   0.0000000), wk =   0.0078125
        k(   10) = (   0.0156250   0.3518228   0.0000000), wk =   0.0078125
        k(   11) = (   0.0156250   0.3879072   0.0000000), wk =   0.0078125
        k(   12) = (   0.0156250   0.4239916   0.0000000), wk =   0.0078125
        k(   13) = (   0.0156250   0.4600760   0.0000000), wk =   0.0078125
        k(   14) = (   0.0156250   0.4961604   0.0000000), wk =   0.0078125
        k(   15) = (   0.0156250   0.5322448   0.0000000), wk =   0.0078125
        k(   16) = (   0.0156250   0.5683292   0.0000000), wk =   0.0078125
        k(   17) = (   0.0156250  -0.5502870   0.0000000), wk =   0.0078125
        k(   18) = (   0.0156250  -0.5142026   0.0000000), wk =   0.0078125
        k(   19) = (   0.0156250  -0.4781182   0.0000000), wk =   0.0078125
        k(   20) = (   0.0156250  -0.4420338   0.0000000), wk =   0.0078125
        k(   21) = (   0.0156250  -0.4059494   0.0000000), wk =   0.0078125
        k(   22) = (   0.0156250  -0.3698650   0.0000000), wk =   0.0078125
        k(   23) = (   0.0156250  -0.3337806   0.0000000), wk =   0.0078125
        k(   24) = (   0.0156250  -0.2976962   0.0000000), wk =   0.0078125
        k(   25) = (   0.0156250  -0.2616118   0.0000000), wk =   0.0078125
        k(   26) = (   0.0156250  -0.2255274   0.0000000), wk =   0.0078125
        k(   27) = (   0.0156250  -0.1894431   0.0000000), wk =   0.0078125
        k(   28) = (   0.0156250  -0.1533587   0.0000000), wk =   0.0078125
        k(   29) = (   0.0156250  -0.1172743   0.0000000), wk =   0.0078125
        k(   30) = (   0.0156250  -0.0811899   0.0000000), wk =   0.0078125
        k(   31) = (   0.0156250  -0.0451055   0.0000000), wk =   0.0078125
        k(   32) = (   0.0156250  -0.0090211   0.0000000), wk =   0.0039062
        k(   33) = (   0.0468750   0.0811899   0.0000000), wk =   0.0039062
        k(   34) = (   0.0468750   0.1172743   0.0000000), wk =   0.0078125
        k(   35) = (   0.0468750   0.1533587   0.0000000), wk =   0.0078125
        k(   36) = (   0.0468750   0.1894431   0.0000000), wk =   0.0078125
        k(   37) = (   0.0468750   0.2255274   0.0000000), wk =   0.0078125
        k(   38) = (   0.0468750   0.2616118   0.0000000), wk =   0.0078125
        k(   39) = (   0.0468750   0.2976962   0.0000000), wk =   0.0078125
        k(   40) = (   0.0468750   0.3337806   0.0000000), wk =   0.0078125
        k(   41) = (   0.0468750   0.3698650   0.0000000), wk =   0.0078125
        k(   42) = (   0.0468750   0.4059494   0.0000000), wk =   0.0078125
        k(   43) = (   0.0468750   0.4420338   0.0000000), wk =   0.0078125
        k(   44) = (   0.0468750   0.4781182   0.0000000), wk =   0.0078125
        k(   45) = (   0.0468750   0.5142026   0.0000000), wk =   0.0078125
        k(   46) = (   0.0468750   0.5502870   0.0000000), wk =   0.0078125
        k(   47) = (   0.0468750   0.5863714   0.0000000), wk =   0.0078125
        k(   48) = (   0.0468750  -0.5322448   0.0000000), wk =   0.0078125
        k(   49) = (   0.0468750  -0.4961604   0.0000000), wk =   0.0078125
        k(   50) = (   0.0468750  -0.4600760   0.0000000), wk =   0.0078125
        k(   51) = (   0.0468750  -0.4239916   0.0000000), wk =   0.0078125
        k(   52) = (   0.0468750  -0.3879072   0.0000000), wk =   0.0078125
        k(   53) = (   0.0468750  -0.3518228   0.0000000), wk =   0.0078125
        k(   54) = (   0.0468750  -0.3157384   0.0000000), wk =   0.0078125
        k(   55) = (   0.0468750  -0.2796540   0.0000000), wk =   0.0078125
        k(   56) = (   0.0468750  -0.2435696   0.0000000), wk =   0.0078125
        k(   57) = (   0.0468750  -0.2074853   0.0000000), wk =   0.0078125
        k(   58) = (   0.0468750  -0.1714009   0.0000000), wk =   0.0078125
        k(   59) = (   0.0468750  -0.1353165   0.0000000), wk =   0.0078125
        k(   60) = (   0.0468750  -0.0992321   0.0000000), wk =   0.0078125
        k(   61) = (   0.0468750  -0.0631477   0.0000000), wk =   0.0078125
        k(   62) = (   0.0468750  -0.0270633   0.0000000), wk =   0.0039062
        k(   63) = (   0.0781250   0.1353165   0.0000000), wk =   0.0039062
        k(   64) = (   0.0781250   0.1714009   0.0000000), wk =   0.0078125
        k(   65) = (   0.0781250   0.2074853   0.0000000), wk =   0.0078125
        k(   66) = (   0.0781250   0.2435696   0.0000000), wk =   0.0078125
        k(   67) = (   0.0781250   0.2796540   0.0000000), wk =   0.0078125
        k(   68) = (   0.0781250   0.3157384   0.0000000), wk =   0.0078125
        k(   69) = (   0.0781250   0.3518228   0.0000000), wk =   0.0078125
        k(   70) = (   0.0781250   0.3879072   0.0000000), wk =   0.0078125
        k(   71) = (   0.0781250   0.4239916   0.0000000), wk =   0.0078125
        k(   72) = (   0.0781250   0.4600760   0.0000000), wk =   0.0078125
        k(   73) = (   0.0781250   0.4961604   0.0000000), wk =   0.0078125
        k(   74) = (   0.0781250   0.5322448   0.0000000), wk =   0.0078125
        k(   75) = (   0.0781250   0.5683292   0.0000000), wk =   0.0078125
        k(   76) = (   0.0781250   0.6044136   0.0000000), wk =   0.0078125
        k(   77) = (   0.0781250  -0.5142026   0.0000000), wk =   0.0078125
        k(   78) = (   0.0781250  -0.4781182   0.0000000), wk =   0.0078125
        k(   79) = (   0.0781250  -0.4420338   0.0000000), wk =   0.0078125
        k(   80) = (   0.0781250  -0.4059494   0.0000000), wk =   0.0078125
        k(   81) = (   0.0781250  -0.3698650   0.0000000), wk =   0.0078125
        k(   82) = (   0.0781250  -0.3337806   0.0000000), wk =   0.0078125
        k(   83) = (   0.0781250  -0.2976962   0.0000000), wk =   0.0078125
        k(   84) = (   0.0781250  -0.2616118   0.0000000), wk =   0.0078125
        k(   85) = (   0.0781250  -0.2255274   0.0000000), wk =   0.0078125
        k(   86) = (   0.0781250  -0.1894431   0.0000000), wk =   0.0078125
        k(   87) = (   0.0781250  -0.1533587   0.0000000), wk =   0.0078125
        k(   88) = (   0.0781250  -0.1172743   0.0000000), wk =   0.0078125
        k(   89) = (   0.0781250  -0.0811899   0.0000000), wk =   0.0078125
        k(   90) = (   0.0781250  -0.0451055   0.0000000), wk =   0.0039062
        k(   91) = (   0.1093750   0.1894431   0.0000000), wk =   0.0039062
        k(   92) = (   0.1093750   0.2255274   0.0000000), wk =   0.0078125
        k(   93) = (   0.1093750   0.2616118   0.0000000), wk =   0.0078125
        k(   94) = (   0.1093750   0.2976962   0.0000000), wk =   0.0078125
        k(   95) = (   0.1093750   0.3337806   0.0000000), wk =   0.0078125
        k(   96) = (   0.1093750   0.3698650   0.0000000), wk =   0.0078125
        k(   97) = (   0.1093750   0.4059494   0.0000000), wk =   0.0078125
        k(   98) = (   0.1093750   0.4420338   0.0000000), wk =   0.0078125
        k(   99) = (   0.1093750   0.4781182   0.0000000), wk =   0.0078125
        k(  100) = (   0.1093750   0.5142026   0.0000000), wk =   0.0078125
        k(  101) = (   0.1093750   0.5502870   0.0000000), wk =   0.0078125
        k(  102) = (   0.1093750   0.5863714   0.0000000), wk =   0.0078125
        k(  103) = (   0.1093750   0.6224558   0.0000000), wk =   0.0078125
        k(  104) = (   0.1093750  -0.4961604   0.0000000), wk =   0.0078125
        k(  105) = (   0.1093750  -0.4600760   0.0000000), wk =   0.0078125
        k(  106) = (   0.1093750  -0.4239916   0.0000000), wk =   0.0078125
        k(  107) = (   0.1093750  -0.3879072   0.0000000), wk =   0.0078125
        k(  108) = (   0.1093750  -0.3518228   0.0000000), wk =   0.0078125
        k(  109) = (   0.1093750  -0.3157384   0.0000000), wk =   0.0078125
        k(  110) = (   0.1093750  -0.2796540   0.0000000), wk =   0.0078125
        k(  111) = (   0.1093750  -0.2435696   0.0000000), wk =   0.0078125
        k(  112) = (   0.1093750  -0.2074853   0.0000000), wk =   0.0078125
        k(  113) = (   0.1093750  -0.1714009   0.0000000), wk =   0.0078125
        k(  114) = (   0.1093750  -0.1353165   0.0000000), wk =   0.0078125
        k(  115) = (   0.1093750  -0.0992321   0.0000000), wk =   0.0078125
        k(  116) = (   0.1093750  -0.0631477   0.0000000), wk =   0.0039062
        k(  117) = (   0.1406250   0.2435696   0.0000000), wk =   0.0039062
        k(  118) = (   0.1406250   0.2796540   0.0000000), wk =   0.0078125
        k(  119) = (   0.1406250   0.3157384   0.0000000), wk =   0.0078125
        k(  120) = (   0.1406250   0.3518228   0.0000000), wk =   0.0078125
        k(  121) = (   0.1406250   0.3879072   0.0000000), wk =   0.0078125
        k(  122) = (   0.1406250   0.4239916   0.0000000), wk =   0.0078125
        k(  123) = (   0.1406250   0.4600760   0.0000000), wk =   0.0078125
        k(  124) = (   0.1406250   0.4961604   0.0000000), wk =   0.0078125
        k(  125) = (   0.1406250   0.5322448   0.0000000), wk =   0.0078125
        k(  126) = (   0.1406250   0.5683292   0.0000000), wk =   0.0078125
        k(  127) = (   0.1406250   0.6044136   0.0000000), wk =   0.0078125
        k(  128) = (   0.1406250   0.6404980   0.0000000), wk =   0.0078125
        k(  129) = (   0.1406250  -0.4781182   0.0000000), wk =   0.0078125
        k(  130) = (   0.1406250  -0.4420338   0.0000000), wk =   0.0078125
        k(  131) = (   0.1406250  -0.4059494   0.0000000), wk =   0.0078125
        k(  132) = (   0.1406250  -0.3698650   0.0000000), wk =   0.0078125
        k(  133) = (   0.1406250  -0.3337806   0.0000000), wk =   0.0078125
        k(  134) = (   0.1406250  -0.2976962   0.0000000), wk =   0.0078125
        k(  135) = (   0.1406250  -0.2616118   0.0000000), wk =   0.0078125
        k(  136) = (   0.1406250  -0.2255274   0.0000000), wk =   0.0078125
        k(  137) = (   0.1406250  -0.1894431   0.0000000), wk =   0.0078125
        k(  138) = (   0.1406250  -0.1533587   0.0000000), wk =   0.0078125
        k(  139) = (   0.1406250  -0.1172743   0.0000000), wk =   0.0078125
        k(  140) = (   0.1406250  -0.0811899   0.0000000), wk =   0.0039062
        k(  141) = (   0.1718750   0.2976962   0.0000000), wk =   0.0039062
        k(  142) = (   0.1718750   0.3337806   0.0000000), wk =   0.0078125
        k(  143) = (   0.1718750   0.3698650   0.0000000), wk =   0.0078125
        k(  144) = (   0.1718750   0.4059494   0.0000000), wk =   0.0078125
        k(  145) = (   0.1718750   0.4420338   0.0000000), wk =   0.0078125
        k(  146) = (   0.1718750   0.4781182   0.0000000), wk =   0.0078125
        k(  147) = (   0.1718750   0.5142026   0.0000000), wk =   0.0078125
        k(  148) = (   0.1718750   0.5502870   0.0000000), wk =   0.0078125
        k(  149) = (   0.1718750   0.5863714   0.0000000), wk =   0.0078125
        k(  150) = (   0.1718750   0.6224558   0.0000000), wk =   0.0078125
        k(  151) = (   0.1718750   0.6585402   0.0000000), wk =   0.0078125
        k(  152) = (   0.1718750  -0.4600760   0.0000000), wk =   0.0078125
        k(  153) = (   0.1718750  -0.4239916   0.0000000), wk =   0.0078125
        k(  154) = (   0.1718750  -0.3879072   0.0000000), wk =   0.0078125
        k(  155) = (   0.1718750  -0.3518228   0.0000000), wk =   0.0078125
        k(  156) = (   0.1718750  -0.3157384   0.0000000), wk =   0.0078125
        k(  157) = (   0.1718750  -0.2796540   0.0000000), wk =   0.0078125
        k(  158) = (   0.1718750  -0.2435696   0.0000000), wk =   0.0078125
        k(  159) = (   0.1718750  -0.2074853   0.0000000), wk =   0.0078125
        k(  160) = (   0.1718750  -0.1714009   0.0000000), wk =   0.0078125
        k(  161) = (   0.1718750  -0.1353165   0.0000000), wk =   0.0078125
        k(  162) = (   0.1718750  -0.0992321   0.0000000), wk =   0.0039062
        k(  163) = (   0.2031250   0.3518228   0.0000000), wk =   0.0039062
        k(  164) = (   0.2031250   0.3879072   0.0000000), wk =   0.0078125
        k(  165) = (   0.2031250   0.4239916   0.0000000), wk =   0.0078125
        k(  166) = (   0.2031250   0.4600760   0.0000000), wk =   0.0078125
        k(  167) = (   0.2031250   0.4961604   0.0000000), wk =   0.0078125
        k(  168) = (   0.2031250   0.5322448   0.0000000), wk =   0.0078125
        k(  169) = (   0.2031250   0.5683292   0.0000000), wk =   0.0078125
        k(  170) = (   0.2031250   0.6044136   0.0000000), wk =   0.0078125
        k(  171) = (   0.2031250   0.6404980   0.0000000), wk =   0.0078125
        k(  172) = (   0.2031250   0.6765823   0.0000000), wk =   0.0078125
        k(  173) = (   0.2031250  -0.4420338   0.0000000), wk =   0.0078125
        k(  174) = (   0.2031250  -0.4059494   0.0000000), wk =   0.0078125
        k(  175) = (   0.2031250  -0.3698650   0.0000000), wk =   0.0078125
        k(  176) = (   0.2031250  -0.3337806   0.0000000), wk =   0.0078125
        k(  177) = (   0.2031250  -0.2976962   0.0000000), wk =   0.0078125
        k(  178) = (   0.2031250  -0.2616118   0.0000000), wk =   0.0078125
        k(  179) = (   0.2031250  -0.2255274   0.0000000), wk =   0.0078125
        k(  180) = (   0.2031250  -0.1894431   0.0000000), wk =   0.0078125
        k(  181) = (   0.2031250  -0.1533587   0.0000000), wk =   0.0078125
        k(  182) = (   0.2031250  -0.1172743   0.0000000), wk =   0.0039062
        k(  183) = (   0.2343750   0.4059494   0.0000000), wk =   0.0039062
        k(  184) = (   0.2343750   0.4420338   0.0000000), wk =   0.0078125
        k(  185) = (   0.2343750   0.4781182   0.0000000), wk =   0.0078125
        k(  186) = (   0.2343750   0.5142026   0.0000000), wk =   0.0078125
        k(  187) = (   0.2343750   0.5502870   0.0000000), wk =   0.0078125
        k(  188) = (   0.2343750   0.5863714   0.0000000), wk =   0.0078125
        k(  189) = (   0.2343750   0.6224558   0.0000000), wk =   0.0078125
        k(  190) = (   0.2343750   0.6585402   0.0000000), wk =   0.0078125
        k(  191) = (   0.2343750   0.6946245   0.0000000), wk =   0.0078125
        k(  192) = (   0.2343750  -0.4239916   0.0000000), wk =   0.0078125
        k(  193) = (   0.2343750  -0.3879072   0.0000000), wk =   0.0078125
        k(  194) = (   0.2343750  -0.3518228   0.0000000), wk =   0.0078125
        k(  195) = (   0.2343750  -0.3157384   0.0000000), wk =   0.0078125
        k(  196) = (   0.2343750  -0.2796540   0.0000000), wk =   0.0078125
        k(  197) = (   0.2343750  -0.2435696   0.0000000), wk =   0.0078125
        k(  198) = (   0.2343750  -0.2074853   0.0000000), wk =   0.0078125
        k(  199) = (   0.2343750  -0.1714009   0.0000000), wk =   0.0078125
        k(  200) = (   0.2343750  -0.1353165   0.0000000), wk =   0.0039062
        k(  201) = (   0.2656250   0.4600760   0.0000000), wk =   0.0039062
        k(  202) = (   0.2656250   0.4961604   0.0000000), wk =   0.0078125
        k(  203) = (   0.2656250   0.5322448   0.0000000), wk =   0.0078125
        k(  204) = (   0.2656250   0.5683292   0.0000000), wk =   0.0078125
        k(  205) = (   0.2656250   0.6044136   0.0000000), wk =   0.0078125
        k(  206) = (   0.2656250   0.6404980   0.0000000), wk =   0.0078125
        k(  207) = (   0.2656250   0.6765823   0.0000000), wk =   0.0078125
        k(  208) = (   0.2656250   0.7126667   0.0000000), wk =   0.0078125
        k(  209) = (   0.2656250  -0.4059494   0.0000000), wk =   0.0078125
        k(  210) = (   0.2656250  -0.3698650   0.0000000), wk =   0.0078125
        k(  211) = (   0.2656250  -0.3337806   0.0000000), wk =   0.0078125
        k(  212) = (   0.2656250  -0.2976962   0.0000000), wk =   0.0078125
        k(  213) = (   0.2656250  -0.2616118   0.0000000), wk =   0.0078125
        k(  214) = (   0.2656250  -0.2255274   0.0000000), wk =   0.0078125
        k(  215) = (   0.2656250  -0.1894431   0.0000000), wk =   0.0078125
        k(  216) = (   0.2656250  -0.1533587   0.0000000), wk =   0.0039062
        k(  217) = (   0.2968750   0.5142026   0.0000000), wk =   0.0039062
        k(  218) = (   0.2968750   0.5502870   0.0000000), wk =   0.0078125
        k(  219) = (   0.2968750   0.5863714   0.0000000), wk =   0.0078125
        k(  220) = (   0.2968750   0.6224558   0.0000000), wk =   0.0078125
        k(  221) = (   0.2968750   0.6585402   0.0000000), wk =   0.0078125
        k(  222) = (   0.2968750   0.6946245   0.0000000), wk =   0.0078125
        k(  223) = (   0.2968750   0.7307089   0.0000000), wk =   0.0078125
        k(  224) = (   0.2968750  -0.3879072   0.0000000), wk =   0.0078125
        k(  225) = (   0.2968750  -0.3518228   0.0000000), wk =   0.0078125
        k(  226) = (   0.2968750  -0.3157384   0.0000000), wk =   0.0078125
        k(  227) = (   0.2968750  -0.2796540   0.0000000), wk =   0.0078125
        k(  228) = (   0.2968750  -0.2435696   0.0000000), wk =   0.0078125
        k(  229) = (   0.2968750  -0.2074853   0.0000000), wk =   0.0078125
        k(  230) = (   0.2968750  -0.1714009   0.0000000), wk =   0.0039062
        k(  231) = (   0.3281250   0.5683292   0.0000000), wk =   0.0039062
        k(  232) = (   0.3281250   0.6044136   0.0000000), wk =   0.0078125
        k(  233) = (   0.3281250   0.6404980   0.0000000), wk =   0.0078125
        k(  234) = (   0.3281250   0.6765823   0.0000000), wk =   0.0078125
        k(  235) = (   0.3281250   0.7126667   0.0000000), wk =   0.0078125
        k(  236) = (   0.3281250   0.7487511   0.0000000), wk =   0.0078125
        k(  237) = (   0.3281250  -0.3698650   0.0000000), wk =   0.0078125
        k(  238) = (   0.3281250  -0.3337806   0.0000000), wk =   0.0078125
        k(  239) = (   0.3281250  -0.2976962   0.0000000), wk =   0.0078125
        k(  240) = (   0.3281250  -0.2616118   0.0000000), wk =   0.0078125
        k(  241) = (   0.3281250  -0.2255274   0.0000000), wk =   0.0078125
        k(  242) = (   0.3281250  -0.1894431   0.0000000), wk =   0.0039062
        k(  243) = (   0.3593750   0.6224558   0.0000000), wk =   0.0039062
        k(  244) = (   0.3593750   0.6585402   0.0000000), wk =   0.0078125
        k(  245) = (   0.3593750   0.6946245   0.0000000), wk =   0.0078125
        k(  246) = (   0.3593750   0.7307089   0.0000000), wk =   0.0078125
        k(  247) = (   0.3593750   0.7667933   0.0000000), wk =   0.0078125
        k(  248) = (   0.3593750  -0.3518228   0.0000000), wk =   0.0078125
        k(  249) = (   0.3593750  -0.3157384   0.0000000), wk =   0.0078125
        k(  250) = (   0.3593750  -0.2796540   0.0000000), wk =   0.0078125
        k(  251) = (   0.3593750  -0.2435696   0.0000000), wk =   0.0078125
        k(  252) = (   0.3593750  -0.2074853   0.0000000), wk =   0.0039062
        k(  253) = (   0.3906250   0.6765823   0.0000000), wk =   0.0039062
        k(  254) = (   0.3906250   0.7126667   0.0000000), wk =   0.0078125
        k(  255) = (   0.3906250   0.7487511   0.0000000), wk =   0.0078125
        k(  256) = (   0.3906250   0.7848355   0.0000000), wk =   0.0078125
        k(  257) = (   0.3906250  -0.3337806   0.0000000), wk =   0.0078125
        k(  258) = (   0.3906250  -0.2976962   0.0000000), wk =   0.0078125
        k(  259) = (   0.3906250  -0.2616118   0.0000000), wk =   0.0078125
        k(  260) = (   0.3906250  -0.2255274   0.0000000), wk =   0.0039062
        k(  261) = (   0.4218750   0.7307089   0.0000000), wk =   0.0039062
        k(  262) = (   0.4218750   0.7667933   0.0000000), wk =   0.0078125
        k(  263) = (   0.4218750   0.8028777   0.0000000), wk =   0.0078125
        k(  264) = (   0.4218750  -0.3157384   0.0000000), wk =   0.0078125
        k(  265) = (   0.4218750  -0.2796540   0.0000000), wk =   0.0078125
        k(  266) = (   0.4218750  -0.2435696   0.0000000), wk =   0.0039062
        k(  267) = (   0.4531250   0.7848355   0.0000000), wk =   0.0039062
        k(  268) = (   0.4531250   0.8209199   0.0000000), wk =   0.0078125
        k(  269) = (   0.4531250  -0.2976962   0.0000000), wk =   0.0078125
        k(  270) = (   0.4531250  -0.2616118   0.0000000), wk =   0.0039062
        k(  271) = (   0.4843750   0.8389621   0.0000000), wk =   0.0039062
        k(  272) = (   0.4843750  -0.2796540   0.0000000), wk =   0.0039062

                       cryst. coord.
        k(    1) = (   0.0156250   0.0156250   0.0000000), wk =   0.0039062
        k(    2) = (   0.0156250   0.0468750   0.0000000), wk =   0.0078125
        k(    3) = (   0.0156250   0.0781250   0.0000000), wk =   0.0078125
        k(    4) = (   0.0156250   0.1093750   0.0000000), wk =   0.0078125
        k(    5) = (   0.0156250   0.1406250   0.0000000), wk =   0.0078125
        k(    6) = (   0.0156250   0.1718750   0.0000000), wk =   0.0078125
        k(    7) = (   0.0156250   0.2031250   0.0000000), wk =   0.0078125
        k(    8) = (   0.0156250   0.2343750   0.0000000), wk =   0.0078125
        k(    9) = (   0.0156250   0.2656250   0.0000000), wk =   0.0078125
        k(   10) = (   0.0156250   0.2968750   0.0000000), wk =   0.0078125
        k(   11) = (   0.0156250   0.3281250   0.0000000), wk =   0.0078125
        k(   12) = (   0.0156250   0.3593750   0.0000000), wk =   0.0078125
        k(   13) = (   0.0156250   0.3906250   0.0000000), wk =   0.0078125
        k(   14) = (   0.0156250   0.4218750   0.0000000), wk =   0.0078125
        k(   15) = (   0.0156250   0.4531250   0.0000000), wk =   0.0078125
        k(   16) = (   0.0156250   0.4843750   0.0000000), wk =   0.0078125
        k(   17) = (   0.0156250  -0.4843750   0.0000000), wk =   0.0078125
        k(   18) = (   0.0156250  -0.4531250   0.0000000), wk =   0.0078125
        k(   19) = (   0.0156250  -0.4218750   0.0000000), wk =   0.0078125
        k(   20) = (   0.0156250  -0.3906250   0.0000000), wk =   0.0078125
        k(   21) = (   0.0156250  -0.3593750   0.0000000), wk =   0.0078125
        k(   22) = (   0.0156250  -0.3281250   0.0000000), wk =   0.0078125
        k(   23) = (   0.0156250  -0.2968750   0.0000000), wk =   0.0078125
        k(   24) = (   0.0156250  -0.2656250   0.0000000), wk =   0.0078125
        k(   25) = (   0.0156250  -0.2343750   0.0000000), wk =   0.0078125
        k(   26) = (   0.0156250  -0.2031250   0.0000000), wk =   0.0078125
        k(   27) = (   0.0156250  -0.1718750   0.0000000), wk =   0.0078125
        k(   28) = (   0.0156250  -0.1406250   0.0000000), wk =   0.0078125
        k(   29) = (   0.0156250  -0.1093750   0.0000000), wk =   0.0078125
        k(   30) = (   0.0156250  -0.0781250   0.0000000), wk =   0.0078125
        k(   31) = (   0.0156250  -0.0468750   0.0000000), wk =   0.0078125
        k(   32) = (   0.0156250  -0.0156250   0.0000000), wk =   0.0039062
        k(   33) = (   0.0468750   0.0468750   0.0000000), wk =   0.0039062
        k(   34) = (   0.0468750   0.0781250   0.0000000), wk =   0.0078125
        k(   35) = (   0.0468750   0.1093750   0.0000000), wk =   0.0078125
        k(   36) = (   0.0468750   0.1406250   0.0000000), wk =   0.0078125
        k(   37) = (   0.0468750   0.1718750   0.0000000), wk =   0.0078125
        k(   38) = (   0.0468750   0.2031250   0.0000000), wk =   0.0078125
        k(   39) = (   0.0468750   0.2343750   0.0000000), wk =   0.0078125
        k(   40) = (   0.0468750   0.2656250   0.0000000), wk =   0.0078125
        k(   41) = (   0.0468750   0.2968750   0.0000000), wk =   0.0078125
        k(   42) = (   0.0468750   0.3281250   0.0000000), wk =   0.0078125
        k(   43) = (   0.0468750   0.3593750   0.0000000), wk =   0.0078125
        k(   44) = (   0.0468750   0.3906250   0.0000000), wk =   0.0078125
        k(   45) = (   0.0468750   0.4218750   0.0000000), wk =   0.0078125
        k(   46) = (   0.0468750   0.4531250   0.0000000), wk =   0.0078125
        k(   47) = (   0.0468750   0.4843750   0.0000000), wk =   0.0078125
        k(   48) = (   0.0468750  -0.4843750   0.0000000), wk =   0.0078125
        k(   49) = (   0.0468750  -0.4531250   0.0000000), wk =   0.0078125
        k(   50) = (   0.0468750  -0.4218750   0.0000000), wk =   0.0078125
        k(   51) = (   0.0468750  -0.3906250   0.0000000), wk =   0.0078125
        k(   52) = (   0.0468750  -0.3593750   0.0000000), wk =   0.0078125
        k(   53) = (   0.0468750  -0.3281250   0.0000000), wk =   0.0078125
        k(   54) = (   0.0468750  -0.2968750   0.0000000), wk =   0.0078125
        k(   55) = (   0.0468750  -0.2656250   0.0000000), wk =   0.0078125
        k(   56) = (   0.0468750  -0.2343750   0.0000000), wk =   0.0078125
        k(   57) = (   0.0468750  -0.2031250   0.0000000), wk =   0.0078125
        k(   58) = (   0.0468750  -0.1718750   0.0000000), wk =   0.0078125
        k(   59) = (   0.0468750  -0.1406250   0.0000000), wk =   0.0078125
        k(   60) = (   0.0468750  -0.1093750   0.0000000), wk =   0.0078125
        k(   61) = (   0.0468750  -0.0781250   0.0000000), wk =   0.0078125
        k(   62) = (   0.0468750  -0.0468750   0.0000000), wk =   0.0039062
        k(   63) = (   0.0781250   0.0781250   0.0000000), wk =   0.0039062
        k(   64) = (   0.0781250   0.1093750   0.0000000), wk =   0.0078125
        k(   65) = (   0.0781250   0.1406250   0.0000000), wk =   0.0078125
        k(   66) = (   0.0781250   0.1718750   0.0000000), wk =   0.0078125
        k(   67) = (   0.0781250   0.2031250   0.0000000), wk =   0.0078125
        k(   68) = (   0.0781250   0.2343750   0.0000000), wk =   0.0078125
        k(   69) = (   0.0781250   0.2656250   0.0000000), wk =   0.0078125
        k(   70) = (   0.0781250   0.2968750   0.0000000), wk =   0.0078125
        k(   71) = (   0.0781250   0.3281250   0.0000000), wk =   0.0078125
        k(   72) = (   0.0781250   0.3593750   0.0000000), wk =   0.0078125
        k(   73) = (   0.0781250   0.3906250   0.0000000), wk =   0.0078125
        k(   74) = (   0.0781250   0.4218750   0.0000000), wk =   0.0078125
        k(   75) = (   0.0781250   0.4531250   0.0000000), wk =   0.0078125
        k(   76) = (   0.0781250   0.4843750   0.0000000), wk =   0.0078125
        k(   77) = (   0.0781250  -0.4843750   0.0000000), wk =   0.0078125
        k(   78) = (   0.0781250  -0.4531250   0.0000000), wk =   0.0078125
        k(   79) = (   0.0781250  -0.4218750   0.0000000), wk =   0.0078125
        k(   80) = (   0.0781250  -0.3906250   0.0000000), wk =   0.0078125
        k(   81) = (   0.0781250  -0.3593750   0.0000000), wk =   0.0078125
        k(   82) = (   0.0781250  -0.3281250   0.0000000), wk =   0.0078125
        k(   83) = (   0.0781250  -0.2968750   0.0000000), wk =   0.0078125
        k(   84) = (   0.0781250  -0.2656250   0.0000000), wk =   0.0078125
        k(   85) = (   0.0781250  -0.2343750   0.0000000), wk =   0.0078125
        k(   86) = (   0.0781250  -0.2031250   0.0000000), wk =   0.0078125
        k(   87) = (   0.0781250  -0.1718750   0.0000000), wk =   0.0078125
        k(   88) = (   0.0781250  -0.1406250   0.0000000), wk =   0.0078125
        k(   89) = (   0.0781250  -0.1093750   0.0000000), wk =   0.0078125
        k(   90) = (   0.0781250  -0.0781250   0.0000000), wk =   0.0039062
        k(   91) = (   0.1093750   0.1093750   0.0000000), wk =   0.0039062
        k(   92) = (   0.1093750   0.1406250   0.0000000), wk =   0.0078125
        k(   93) = (   0.1093750   0.1718750   0.0000000), wk =   0.0078125
        k(   94) = (   0.1093750   0.2031250   0.0000000), wk =   0.0078125
        k(   95) = (   0.1093750   0.2343750   0.0000000), wk =   0.0078125
        k(   96) = (   0.1093750   0.2656250   0.0000000), wk =   0.0078125
        k(   97) = (   0.1093750   0.2968750   0.0000000), wk =   0.0078125
        k(   98) = (   0.1093750   0.3281250   0.0000000), wk =   0.0078125
        k(   99) = (   0.1093750   0.3593750   0.0000000), wk =   0.0078125
        k(  100) = (   0.1093750   0.3906250   0.0000000), wk =   0.0078125
        k(  101) = (   0.1093750   0.4218750   0.0000000), wk =   0.0078125
        k(  102) = (   0.1093750   0.4531250   0.0000000), wk =   0.0078125
        k(  103) = (   0.1093750   0.4843750   0.0000000), wk =   0.0078125
        k(  104) = (   0.1093750  -0.4843750   0.0000000), wk =   0.0078125
        k(  105) = (   0.1093750  -0.4531250   0.0000000), wk =   0.0078125
        k(  106) = (   0.1093750  -0.4218750   0.0000000), wk =   0.0078125
        k(  107) = (   0.1093750  -0.3906250   0.0000000), wk =   0.0078125
        k(  108) = (   0.1093750  -0.3593750   0.0000000), wk =   0.0078125
        k(  109) = (   0.1093750  -0.3281250   0.0000000), wk =   0.0078125
        k(  110) = (   0.1093750  -0.2968750   0.0000000), wk =   0.0078125
        k(  111) = (   0.1093750  -0.2656250   0.0000000), wk =   0.0078125
        k(  112) = (   0.1093750  -0.2343750   0.0000000), wk =   0.0078125
        k(  113) = (   0.1093750  -0.2031250   0.0000000), wk =   0.0078125
        k(  114) = (   0.1093750  -0.1718750   0.0000000), wk =   0.0078125
        k(  115) = (   0.1093750  -0.1406250   0.0000000), wk =   0.0078125
        k(  116) = (   0.1093750  -0.1093750   0.0000000), wk =   0.0039062
        k(  117) = (   0.1406250   0.1406250   0.0000000), wk =   0.0039062
        k(  118) = (   0.1406250   0.1718750   0.0000000), wk =   0.0078125
        k(  119) = (   0.1406250   0.2031250   0.0000000), wk =   0.0078125
        k(  120) = (   0.1406250   0.2343750   0.0000000), wk =   0.0078125
        k(  121) = (   0.1406250   0.2656250   0.0000000), wk =   0.0078125
        k(  122) = (   0.1406250   0.2968750   0.0000000), wk =   0.0078125
        k(  123) = (   0.1406250   0.3281250   0.0000000), wk =   0.0078125
        k(  124) = (   0.1406250   0.3593750   0.0000000), wk =   0.0078125
        k(  125) = (   0.1406250   0.3906250   0.0000000), wk =   0.0078125
        k(  126) = (   0.1406250   0.4218750   0.0000000), wk =   0.0078125
        k(  127) = (   0.1406250   0.4531250   0.0000000), wk =   0.0078125
        k(  128) = (   0.1406250   0.4843750   0.0000000), wk =   0.0078125
        k(  129) = (   0.1406250  -0.4843750   0.0000000), wk =   0.0078125
        k(  130) = (   0.1406250  -0.4531250   0.0000000), wk =   0.0078125
        k(  131) = (   0.1406250  -0.4218750   0.0000000), wk =   0.0078125
        k(  132) = (   0.1406250  -0.3906250   0.0000000), wk =   0.0078125
        k(  133) = (   0.1406250  -0.3593750   0.0000000), wk =   0.0078125
        k(  134) = (   0.1406250  -0.3281250   0.0000000), wk =   0.0078125
        k(  135) = (   0.1406250  -0.2968750   0.0000000), wk =   0.0078125
        k(  136) = (   0.1406250  -0.2656250   0.0000000), wk =   0.0078125
        k(  137) = (   0.1406250  -0.2343750   0.0000000), wk =   0.0078125
        k(  138) = (   0.1406250  -0.2031250   0.0000000), wk =   0.0078125
        k(  139) = (   0.1406250  -0.1718750   0.0000000), wk =   0.0078125
        k(  140) = (   0.1406250  -0.1406250   0.0000000), wk =   0.0039062
        k(  141) = (   0.1718750   0.1718750   0.0000000), wk =   0.0039062
        k(  142) = (   0.1718750   0.2031250   0.0000000), wk =   0.0078125
        k(  143) = (   0.1718750   0.2343750   0.0000000), wk =   0.0078125
        k(  144) = (   0.1718750   0.2656250   0.0000000), wk =   0.0078125
        k(  145) = (   0.1718750   0.2968750   0.0000000), wk =   0.0078125
        k(  146) = (   0.1718750   0.3281250   0.0000000), wk =   0.0078125
        k(  147) = (   0.1718750   0.3593750   0.0000000), wk =   0.0078125
        k(  148) = (   0.1718750   0.3906250   0.0000000), wk =   0.0078125
        k(  149) = (   0.1718750   0.4218750   0.0000000), wk =   0.0078125
        k(  150) = (   0.1718750   0.4531250   0.0000000), wk =   0.0078125
        k(  151) = (   0.1718750   0.4843750   0.0000000), wk =   0.0078125
        k(  152) = (   0.1718750  -0.4843750   0.0000000), wk =   0.0078125
        k(  153) = (   0.1718750  -0.4531250   0.0000000), wk =   0.0078125
        k(  154) = (   0.1718750  -0.4218750   0.0000000), wk =   0.0078125
        k(  155) = (   0.1718750  -0.3906250   0.0000000), wk =   0.0078125
        k(  156) = (   0.1718750  -0.3593750   0.0000000), wk =   0.0078125
        k(  157) = (   0.1718750  -0.3281250   0.0000000), wk =   0.0078125
        k(  158) = (   0.1718750  -0.2968750   0.0000000), wk =   0.0078125
        k(  159) = (   0.1718750  -0.2656250   0.0000000), wk =   0.0078125
        k(  160) = (   0.1718750  -0.2343750   0.0000000), wk =   0.0078125
        k(  161) = (   0.1718750  -0.2031250   0.0000000), wk =   0.0078125
        k(  162) = (   0.1718750  -0.1718750   0.0000000), wk =   0.0039062
        k(  163) = (   0.2031250   0.2031250   0.0000000), wk =   0.0039062
        k(  164) = (   0.2031250   0.2343750   0.0000000), wk =   0.0078125
        k(  165) = (   0.2031250   0.2656250   0.0000000), wk =   0.0078125
        k(  166) = (   0.2031250   0.2968750   0.0000000), wk =   0.0078125
        k(  167) = (   0.2031250   0.3281250   0.0000000), wk =   0.0078125
        k(  168) = (   0.2031250   0.3593750   0.0000000), wk =   0.0078125
        k(  169) = (   0.2031250   0.3906250   0.0000000), wk =   0.0078125
        k(  170) = (   0.2031250   0.4218750   0.0000000), wk =   0.0078125
        k(  171) = (   0.2031250   0.4531250   0.0000000), wk =   0.0078125
        k(  172) = (   0.2031250   0.4843750   0.0000000), wk =   0.0078125
        k(  173) = (   0.2031250  -0.4843750   0.0000000), wk =   0.0078125
        k(  174) = (   0.2031250  -0.4531250   0.0000000), wk =   0.0078125
        k(  175) = (   0.2031250  -0.4218750   0.0000000), wk =   0.0078125
        k(  176) = (   0.2031250  -0.3906250   0.0000000), wk =   0.0078125
        k(  177) = (   0.2031250  -0.3593750   0.0000000), wk =   0.0078125
        k(  178) = (   0.2031250  -0.3281250   0.0000000), wk =   0.0078125
        k(  179) = (   0.2031250  -0.2968750   0.0000000), wk =   0.0078125
        k(  180) = (   0.2031250  -0.2656250   0.0000000), wk =   0.0078125
        k(  181) = (   0.2031250  -0.2343750   0.0000000), wk =   0.0078125
        k(  182) = (   0.2031250  -0.2031250   0.0000000), wk =   0.0039062
        k(  183) = (   0.2343750   0.2343750   0.0000000), wk =   0.0039062
        k(  184) = (   0.2343750   0.2656250   0.0000000), wk =   0.0078125
        k(  185) = (   0.2343750   0.2968750   0.0000000), wk =   0.0078125
        k(  186) = (   0.2343750   0.3281250   0.0000000), wk =   0.0078125
        k(  187) = (   0.2343750   0.3593750   0.0000000), wk =   0.0078125
        k(  188) = (   0.2343750   0.3906250   0.0000000), wk =   0.0078125
        k(  189) = (   0.2343750   0.4218750   0.0000000), wk =   0.0078125
        k(  190) = (   0.2343750   0.4531250   0.0000000), wk =   0.0078125
        k(  191) = (   0.2343750   0.4843750   0.0000000), wk =   0.0078125
        k(  192) = (   0.2343750  -0.4843750   0.0000000), wk =   0.0078125
        k(  193) = (   0.2343750  -0.4531250   0.0000000), wk =   0.0078125
        k(  194) = (   0.2343750  -0.4218750   0.0000000), wk =   0.0078125
        k(  195) = (   0.2343750  -0.3906250   0.0000000), wk =   0.0078125
        k(  196) = (   0.2343750  -0.3593750   0.0000000), wk =   0.0078125
        k(  197) = (   0.2343750  -0.3281250   0.0000000), wk =   0.0078125
        k(  198) = (   0.2343750  -0.2968750   0.0000000), wk =   0.0078125
        k(  199) = (   0.2343750  -0.2656250   0.0000000), wk =   0.0078125
        k(  200) = (   0.2343750  -0.2343750   0.0000000), wk =   0.0039062
        k(  201) = (   0.2656250   0.2656250   0.0000000), wk =   0.0039062
        k(  202) = (   0.2656250   0.2968750   0.0000000), wk =   0.0078125
        k(  203) = (   0.2656250   0.3281250   0.0000000), wk =   0.0078125
        k(  204) = (   0.2656250   0.3593750   0.0000000), wk =   0.0078125
        k(  205) = (   0.2656250   0.3906250   0.0000000), wk =   0.0078125
        k(  206) = (   0.2656250   0.4218750   0.0000000), wk =   0.0078125
        k(  207) = (   0.2656250   0.4531250   0.0000000), wk =   0.0078125
        k(  208) = (   0.2656250   0.4843750   0.0000000), wk =   0.0078125
        k(  209) = (   0.2656250  -0.4843750   0.0000000), wk =   0.0078125
        k(  210) = (   0.2656250  -0.4531250   0.0000000), wk =   0.0078125
        k(  211) = (   0.2656250  -0.4218750   0.0000000), wk =   0.0078125
        k(  212) = (   0.2656250  -0.3906250   0.0000000), wk =   0.0078125
        k(  213) = (   0.2656250  -0.3593750   0.0000000), wk =   0.0078125
        k(  214) = (   0.2656250  -0.3281250   0.0000000), wk =   0.0078125
        k(  215) = (   0.2656250  -0.2968750   0.0000000), wk =   0.0078125
        k(  216) = (   0.2656250  -0.2656250   0.0000000), wk =   0.0039062
        k(  217) = (   0.2968750   0.2968750   0.0000000), wk =   0.0039062
        k(  218) = (   0.2968750   0.3281250   0.0000000), wk =   0.0078125
        k(  219) = (   0.2968750   0.3593750   0.0000000), wk =   0.0078125
        k(  220) = (   0.2968750   0.3906250   0.0000000), wk =   0.0078125
        k(  221) = (   0.2968750   0.4218750   0.0000000), wk =   0.0078125
        k(  222) = (   0.2968750   0.4531250   0.0000000), wk =   0.0078125
        k(  223) = (   0.2968750   0.4843750   0.0000000), wk =   0.0078125
        k(  224) = (   0.2968750  -0.4843750   0.0000000), wk =   0.0078125
        k(  225) = (   0.2968750  -0.4531250   0.0000000), wk =   0.0078125
        k(  226) = (   0.2968750  -0.4218750   0.0000000), wk =   0.0078125
        k(  227) = (   0.2968750  -0.3906250   0.0000000), wk =   0.0078125
        k(  228) = (   0.2968750  -0.3593750   0.0000000), wk =   0.0078125
        k(  229) = (   0.2968750  -0.3281250   0.0000000), wk =   0.0078125
        k(  230) = (   0.2968750  -0.2968750   0.0000000), wk =   0.0039062
        k(  231) = (   0.3281250   0.3281250   0.0000000), wk =   0.0039062
        k(  232) = (   0.3281250   0.3593750   0.0000000), wk =   0.0078125
        k(  233) = (   0.3281250   0.3906250   0.0000000), wk =   0.0078125
        k(  234) = (   0.3281250   0.4218750   0.0000000), wk =   0.0078125
        k(  235) = (   0.3281250   0.4531250   0.0000000), wk =   0.0078125
        k(  236) = (   0.3281250   0.4843750   0.0000000), wk =   0.0078125
        k(  237) = (   0.3281250  -0.4843750   0.0000000), wk =   0.0078125
        k(  238) = (   0.3281250  -0.4531250   0.0000000), wk =   0.0078125
        k(  239) = (   0.3281250  -0.4218750   0.0000000), wk =   0.0078125
        k(  240) = (   0.3281250  -0.3906250   0.0000000), wk =   0.0078125
        k(  241) = (   0.3281250  -0.3593750   0.0000000), wk =   0.0078125
        k(  242) = (   0.3281250  -0.3281250   0.0000000), wk =   0.0039062
        k(  243) = (   0.3593750   0.3593750   0.0000000), wk =   0.0039062
        k(  244) = (   0.3593750   0.3906250   0.0000000), wk =   0.0078125
        k(  245) = (   0.3593750   0.4218750   0.0000000), wk =   0.0078125
        k(  246) = (   0.3593750   0.4531250   0.0000000), wk =   0.0078125
        k(  247) = (   0.3593750   0.4843750   0.0000000), wk =   0.0078125
        k(  248) = (   0.3593750  -0.4843750   0.0000000), wk =   0.0078125
        k(  249) = (   0.3593750  -0.4531250   0.0000000), wk =   0.0078125
        k(  250) = (   0.3593750  -0.4218750   0.0000000), wk =   0.0078125
        k(  251) = (   0.3593750  -0.3906250   0.0000000), wk =   0.0078125
        k(  252) = (   0.3593750  -0.3593750   0.0000000), wk =   0.0039062
        k(  253) = (   0.3906250   0.3906250   0.0000000), wk =   0.0039062
        k(  254) = (   0.3906250   0.4218750   0.0000000), wk =   0.0078125
        k(  255) = (   0.3906250   0.4531250   0.0000000), wk =   0.0078125
        k(  256) = (   0.3906250   0.4843750   0.0000000), wk =   0.0078125
        k(  257) = (   0.3906250  -0.4843750   0.0000000), wk =   0.0078125
        k(  258) = (   0.3906250  -0.4531250   0.0000000), wk =   0.0078125
        k(  259) = (   0.3906250  -0.4218750   0.0000000), wk =   0.0078125
        k(  260) = (   0.3906250  -0.3906250   0.0000000), wk =   0.0039062
        k(  261) = (   0.4218750   0.4218750   0.0000000), wk =   0.0039062
        k(  262) = (   0.4218750   0.4531250   0.0000000), wk =   0.0078125
        k(  263) = (   0.4218750   0.4843750   0.0000000), wk =   0.0078125
        k(  264) = (   0.4218750  -0.4843750   0.0000000), wk =   0.0078125
        k(  265) = (   0.4218750  -0.4531250   0.0000000), wk =   0.0078125
        k(  266) = (   0.4218750  -0.4218750   0.0000000), wk =   0.0039062
        k(  267) = (   0.4531250   0.4531250   0.0000000), wk =   0.0039062
        k(  268) = (   0.4531250   0.4843750   0.0000000), wk =   0.0078125
        k(  269) = (   0.4531250  -0.4843750   0.0000000), wk =   0.0078125
        k(  270) = (   0.4531250  -0.4531250   0.0000000), wk =   0.0039062
        k(  271) = (   0.4843750   0.4843750   0.0000000), wk =   0.0039062
        k(  272) = (   0.4843750  -0.4843750   0.0000000), wk =   0.0039062

     Dense  grid:   115283 G-vectors     FFT dimensions: (  30,  30, 300)

     Dynamical RAM for                 wfc:       1.76 MB

     Dynamical RAM for     wfc (w. buffer):       1.76 MB

     Dynamical RAM for           str. fact:       1.76 MB

     Dynamical RAM for           local pot:       0.00 MB

     Dynamical RAM for          nlocal pot:       3.51 MB

     Dynamical RAM for                qrad:       0.46 MB

     Dynamical RAM for          rho,v,vnew:      11.46 MB

     Dynamical RAM for               rhoin:       3.82 MB

     Dynamical RAM for            rho*nmix:      28.15 MB

     Dynamical RAM for           G-vectors:       7.48 MB

     Dynamical RAM for          h,s,v(r/c):       0.01 MB

     Dynamical RAM for          <psi|beta>:       0.00 MB

     Dynamical RAM for                 psi:       3.51 MB

     Dynamical RAM for                hpsi:       3.51 MB

     Dynamical RAM for      wfcinit/wfcrot:       3.52 MB

     Estimated static dynamical RAM per process >      44.06 MB

     Estimated max dynamical RAM per process >      79.24 MB

     Estimated total dynamical RAM >      51.13 GB

     Initial potential from superposition of free atoms

     starting charge       7.9999, renormalised to       8.0000

     negative rho (up, down):  2.489E-06 0.000E+00
     Starting wfcs are    8 randomized atomic wfcs

     total cpu time spent up to now is        0.8 secs

     Self-consistent Calculation

     iteration #  1     ecut=   100.00 Ry     beta= 0.70
     Davidson diagonalization with overlap

---- Real-time Memory Report at c_bands before calling an iterative solver
           194 MiB given to the printing process from OS
             0 MiB allocation reported by mallinfo(arena+hblkhd)
        177278 MiB available memory on the node where the printing process lives
------------------
     ethr =  1.00E-02,  avg # of iterations =  5.8

     total cpu time spent up to now is        1.5 secs

     total energy              =     -24.08830088 Ry
     estimated scf accuracy    <       0.21923344 Ry

     iteration #  2     ecut=   100.00 Ry     beta= 0.70
     Davidson diagonalization with overlap

---- Real-time Memory Report at c_bands before calling an iterative solver
           232 MiB given to the printing process from OS
             0 MiB allocation reported by mallinfo(arena+hblkhd)
        176922 MiB available memory on the node where the printing process lives
------------------
     ethr =  2.74E-03,  avg # of iterations =  4.3

     total cpu time spent up to now is        2.0 secs

     total energy              =     -24.12299658 Ry
     estimated scf accuracy    <       0.00215308 Ry

     iteration #  3     ecut=   100.00 Ry     beta= 0.70
     Davidson diagonalization with overlap

---- Real-time Memory Report at c_bands before calling an iterative solver
           236 MiB given to the printing process from OS
             0 MiB allocation reported by mallinfo(arena+hblkhd)
        176917 MiB available memory on the node where the printing process lives
------------------
     ethr =  2.69E-05,  avg # of iterations = 13.8

     total cpu time spent up to now is        3.0 secs

     total energy              =     -24.12343647 Ry
     estimated scf accuracy    <       0.00013717 Ry

     iteration #  4     ecut=   100.00 Ry     beta= 0.70
     Davidson diagonalization with overlap

---- Real-time Memory Report at c_bands before calling an iterative solver
           240 MiB given to the printing process from OS
             0 MiB allocation reported by mallinfo(arena+hblkhd)
        176915 MiB available memory on the node where the printing process lives
------------------
     ethr =  1.71E-06,  avg # of iterations =  6.7

     total cpu time spent up to now is        3.6 secs

     total energy              =     -24.12345027 Ry
     estimated scf accuracy    <       0.00000311 Ry

     iteration #  5     ecut=   100.00 Ry     beta= 0.70
     Davidson diagonalization with overlap

---- Real-time Memory Report at c_bands before calling an iterative solver
           243 MiB given to the printing process from OS
             0 MiB allocation reported by mallinfo(arena+hblkhd)
        176913 MiB available memory on the node where the printing process lives
------------------
     ethr =  3.89E-08,  avg # of iterations =  3.1

     total cpu time spent up to now is        4.1 secs

     total energy              =     -24.12345182 Ry
     estimated scf accuracy    <       0.00000008 Ry

     iteration #  6     ecut=   100.00 Ry     beta= 0.70
     Davidson diagonalization with overlap

---- Real-time Memory Report at c_bands before calling an iterative solver
           247 MiB given to the printing process from OS
             0 MiB allocation reported by mallinfo(arena+hblkhd)
        176908 MiB available memory on the node where the printing process lives
------------------
     ethr =  9.51E-10,  avg # of iterations =  3.2

     total cpu time spent up to now is        4.6 secs

     total energy              =     -24.12345186 Ry
     estimated scf accuracy    <          2.0E-09 Ry

     iteration #  7     ecut=   100.00 Ry     beta= 0.70
     Davidson diagonalization with overlap

---- Real-time Memory Report at c_bands before calling an iterative solver
           250 MiB given to the printing process from OS
             0 MiB allocation reported by mallinfo(arena+hblkhd)
        176905 MiB available memory on the node where the printing process lives
------------------
     ethr =  2.50E-11,  avg # of iterations =  3.0

     total cpu time spent up to now is        5.1 secs

     total energy              =     -24.12345186 Ry
     estimated scf accuracy    <          5.0E-12 Ry

     iteration #  8     ecut=   100.00 Ry     beta= 0.70
     Davidson diagonalization with overlap

---- Real-time Memory Report at c_bands before calling an iterative solver
           254 MiB given to the printing process from OS
             0 MiB allocation reported by mallinfo(arena+hblkhd)
        176901 MiB available memory on the node where the printing process lives
------------------
     ethr =  1.00E-13,  avg # of iterations =  3.6

     total cpu time spent up to now is        5.5 secs

     End of self-consistent calculation

          k = 0.0156 0.0271 0.0000 ( 14495 PWs)   bands (ev):

   -22.4131 -10.7133  -5.9783  -5.9470   0.4619   1.4012   1.7141   2.2480

     occupation numbers 
     1.0000   1.0000   1.0000   1.0000  -0.0000  -0.0000  -0.0000  -0.0000

          k = 0.0156 0.0631 0.0000 ( 14491 PWs)   bands (ev):

   -22.3549 -10.6425  -6.2084  -6.0754   0.5410   1.4819   1.7960   2.3293

     occupation numbers 
     1.0000   1.0000   1.0000   1.0000  -0.0000  -0.0000  -0.0000  -0.0000

          k = 0.0156 0.0992 0.0000 ( 14483 PWs)   bands (ev):

   -22.2502 -10.5153  -6.6033  -6.2907   0.6835   1.6270   1.9434   2.4757

     occupation numbers 
     1.0000   1.0000   1.0000   1.0000  -0.0000  -0.0000  -0.0000  -0.0000

          k = 0.0156 0.1353 0.0000 ( 14465 PWs)   bands (ev):

   -22.0993 -10.3321  -7.1361  -6.5711   0.8894   1.8365   2.1565   2.6872

     occupation numbers 
     1.0000   1.0000   1.0000   1.0000  -0.0000  -0.0000  -0.0000  -0.0000

          k = 0.0156 0.1714 0.0000 ( 14433 PWs)   bands (ev):

   -21.9022 -10.0938  -7.7766  -6.8935   1.1586   2.1101   2.4349   2.9633

     occupation numbers 
     1.0000   1.0000   1.0000   1.0000  -0.0000  -0.0000  -0.0000  -0.0000

          k = 0.0156 0.2075 0.0000 ( 14411 PWs)   bands (ev):

   -21.6593  -9.8012  -8.4966  -7.2368   1.4910   2.4472   2.7789   3.3041

     occupation numbers 
     1.0000   1.0000   1.0000   1.0000  -0.0000  -0.0000  -0.0000  -0.0000

          k = 0.0156 0.2436 0.0000 ( 14423 PWs)   bands (ev):

   -21.3710  -9.4559  -9.2714  -7.5837   1.8864   2.8466   3.1885   3.7088

     occupation numbers 
     1.0000   1.0000   1.0000   1.0000  -0.0000  -0.0000  -0.0000  -0.0000

          k = 0.0156 0.2797 0.0000 ( 14421 PWs)   bands (ev):

   -21.0378 -10.0810  -9.0598  -7.9205   2.3444   3.3025   3.6637   4.1673

     occupation numbers 
     1.0000   1.0000   1.0000   1.0000  -0.0000  -0.0000  -0.0000  -0.0000

          k = 0.0156 0.3157 0.0000 ( 14413 PWs)   bands (ev):

   -20.6603 -10.9089  -8.6160  -8.2367   2.8644   3.6519   4.0050   4.2039

     occupation numbers 
     1.0000   1.0000   1.0000   1.0000  -0.0000  -0.0000  -0.0000  -0.0000

          k = 0.0156 0.3518 0.0000 ( 14388 PWs)   bands (ev):

   -20.2393 -11.7423  -8.5245  -8.1285   2.8976   3.4454   4.4681   4.8091

     occupation numbers 
     1.0000   1.0000   1.0000   1.0000  -0.0000  -0.0000  -0.0000  -0.0000

          k = 0.0156 0.3879 0.0000 ( 14351 PWs)   bands (ev):

   -19.7759 -12.5706  -8.7778  -7.6042   2.0175   4.0843   5.1134   5.2318

     occupation numbers 
     1.0000   1.0000   1.0000   1.0000  -0.0000  -0.0000  -0.0000  -0.0000

          k = 0.0156 0.4240 0.0000 ( 14364 PWs)   bands (ev):

   -19.2716 -13.3853  -8.9924  -7.0538   1.1520   4.7574   5.1796   5.8262

     occupation numbers 
     1.0000   1.0000   1.0000   1.0000  -0.0000  -0.0000  -0.0000  -0.0000

          k = 0.0156 0.4601 0.0000 ( 14361 PWs)   bands (ev):

   -18.7288 -14.1784  -9.1649  -6.4963   0.3348   5.0228   5.6054   6.5992

     occupation numbers 
     1.0000   1.0000   1.0000   1.0000  -0.0000  -0.0000  -0.0000  -0.0000

          k = 0.0156 0.4962 0.0000 ( 14359 PWs)   bands (ev):

   -18.1526 -14.9410  -9.2931  -5.9675  -0.3902   4.9856   6.4085   7.4280

     occupation numbers 
     1.0000   1.0000   1.0000   1.0000  -0.0000  -0.0000  -0.0000  -0.0000

          k = 0.0156 0.5322 0.0000 ( 14367 PWs)   bands (ev):

   -17.5594 -15.6541  -9.3754  -5.5358  -0.9494   4.9526   7.2819   8.3054

     occupation numbers 
     1.0000   1.0000   1.0000   1.0000  -0.0000  -0.0000  -0.0000  -0.0000

          k = 0.0156 0.5683 0.0000 ( 14370 PWs)   bands (ev):

   -17.0653 -16.1999  -9.4109  -5.3122  -1.2282   4.9376   8.2066   8.6950

     occupation numbers 
     1.0000   1.0000   1.0000   1.0000  -0.0000  -0.0000  -0.0000  -0.0000

          k = 0.0156-0.5503 0.0000 ( 14363 PWs)   bands (ev):

   -17.2779 -15.9700  -9.3991  -5.3901  -1.1318   4.9427   7.7390   8.7554

     occupation numbers 
     1.0000   1.0000   1.0000   1.0000  -0.0000  -0.0000  -0.0000  -0.0000

          k = 0.0156-0.5142 0.0000 ( 14367 PWs)   bands (ev):

   -17.8559 -15.3061  -9.3401  -5.7335  -0.6969   4.9672   6.8380   7.8615

     occupation numbers 
     1.0000   1.0000   1.0000   1.0000  -0.0000  -0.0000  -0.0000  -0.0000

          k = 0.0156-0.4781 0.0000 ( 14365 PWs)   bands (ev):

   -18.4443 -14.5643  -9.2347  -6.2251  -0.0429   5.0062   5.9955   7.0068

     occupation numbers 
     1.0000   1.0000   1.0000   1.0000  -0.0000  -0.0000  -0.0000  -0.0000

          k = 0.0156-0.4420 0.0000 ( 14370 PWs)   bands (ev):

   -19.0047 -13.7850  -9.0841  -6.7742   0.7351   4.9941   5.2793   6.2052

     occupation numbers 
     1.0000   1.0000   1.0000   1.0000  -0.0000  -0.0000  -0.0000  -0.0000

          k = 0.0156-0.4059 0.0000 ( 14363 PWs)   bands (ev):

   -19.5287 -12.9802  -8.8902  -7.3313   1.5809   4.4216   5.1970   5.4620

     occupation numbers 
     1.0000   1.0000   1.0000   1.0000  -0.0000  -0.0000  -0.0000  -0.0000

          k = 0.0156-0.3699 0.0000 ( 14372 PWs)   bands (ev):

   -20.0128 -12.1577  -8.6557  -7.8704   2.4581   3.7581   4.7814   5.1326

     occupation numbers 
     1.0000   1.0000   1.0000   1.0000  -0.0000  -0.0000  -0.0000  -0.0000

          k = 0.0156-0.3338 0.0000 ( 14393 PWs)   bands (ev):

   -20.4552 -11.3256  -8.3846  -8.3773   3.1474   3.3251   4.1814   4.4985

     occupation numbers 
     1.0000   1.0000   1.0000   1.0000  -0.0000  -0.0000  -0.0000  -0.0000

          k = 0.0156-0.2977 0.0000 ( 14423 PWs)   bands (ev):

   -20.8545 -10.4935  -8.8436  -8.0817   2.5967   3.5383   3.9256   4.2474

     occupation numbers 
     1.0000   1.0000   1.0000   1.0000  -0.0000  -0.0000  -0.0000  -0.0000

          k = 0.0156-0.2616 0.0000 ( 14423 PWs)   bands (ev):

   -21.2100  -9.6730  -9.2640  -7.7541   2.1076   3.0684   3.4178   3.9331

     occupation numbers 
     1.0000   1.0000   1.0000   1.0000  -0.0000  -0.0000  -0.0000  -0.0000

          k = 0.0156-0.2255 0.0000 ( 14418 PWs)   bands (ev):

   -21.5208  -9.6350  -8.8785  -7.4107   1.6808   2.6393   2.9755   3.4984

     occupation numbers 
     1.0000   1.0000   1.0000   1.0000  -0.0000  -0.0000  -0.0000  -0.0000

          k = 0.0156-0.1894 0.0000 ( 14424 PWs)   bands (ev):

   -21.7864  -9.9542  -8.1283  -7.0637   1.3169   2.2707   2.5987   3.1256

     occupation numbers 
     1.0000   1.0000   1.0000   1.0000  -0.0000  -0.0000  -0.0000  -0.0000

          k = 0.0156-0.1534 0.0000 ( 14449 PWs)   bands (ev):

   -22.0065 -10.2198  -7.4447  -6.7284   1.0161   1.9653   2.2874   2.8172

     occupation numbers 
     1.0000   1.0000   1.0000   1.0000  -0.0000  -0.0000  -0.0000  -0.0000

          k = 0.0156-0.1173 0.0000 ( 14481 PWs)   bands (ev):

   -22.1805 -10.4306  -6.8543  -6.4242   0.7785   1.7237   2.0417   2.5733

     occupation numbers 
     1.0000   1.0000   1.0000   1.0000  -0.0000  -0.0000  -0.0000  -0.0000

          k = 0.0156-0.0812 0.0000 ( 14495 PWs)   bands (ev):

   -22.3084 -10.5859  -6.3868  -6.1734   0.6044   1.5464   1.8615   2.3947

     occupation numbers 
     1.0000   1.0000   1.0000   1.0000  -0.0000  -0.0000  -0.0000  -0.0000

          k = 0.0156-0.0451 0.0000 ( 14489 PWs)   bands (ev):

   -22.3898 -10.6849  -6.0713  -5.9992   0.4936   1.4335   1.7470   2.2806

     occupation numbers 
     1.0000   1.0000   1.0000   1.0000  -0.0000  -0.0000  -0.0000  -0.0000

          k = 0.0156-0.0090 0.0000 ( 14495 PWs)   bands (ev):

   -22.4247 -10.7274  -5.9312  -5.9206   0.4461   1.3851   1.6977   2.2317

     occupation numbers 
     1.0000   1.0000   1.0000   1.0000  -0.0000  -0.0000  -0.0000  -0.0000

          k = 0.0469 0.0812 0.0000 ( 14503 PWs)   bands (ev):

   -22.2735 -10.5435  -6.5064  -6.2564   0.6519   1.5948   1.9106   2.4432

     occupation numbers 
     1.0000   1.0000   1.0000   1.0000  -0.0000  -0.0000  -0.0000  -0.0000

          k = 0.0469 0.1173 0.0000 ( 14475 PWs)   bands (ev):

   -22.1457 -10.3884  -6.9478  -6.5202   0.8261   1.7721   2.0910   2.6220

     occupation numbers 
     1.0000   1.0000   1.0000   1.0000  -0.0000  -0.0000  -0.0000  -0.0000

          k = 0.0469 0.1534 0.0000 ( 14433 PWs)   bands (ev):

   -21.9717 -10.1777  -7.5114  -6.8383   1.0637   2.0136   2.3366   2.8658

     occupation numbers 
     1.0000   1.0000   1.0000   1.0000  -0.0000  -0.0000  -0.0000  -0.0000

          k = 0.0469 0.1894 0.0000 ( 14418 PWs)   bands (ev):

   -21.7518  -9.9123  -8.1718  -7.1856   1.3646   2.3190   2.6479   3.1743

     occupation numbers 
     1.0000   1.0000   1.0000   1.0000  -0.0000  -0.0000  -0.0000  -0.0000

          k = 0.0469 0.2255 0.0000 ( 14419 PWs)   bands (ev):

   -21.4862  -9.5934  -8.9033  -7.5421   1.7286   2.6875   3.0247   3.5472

     occupation numbers 
     1.0000   1.0000   1.0000   1.0000  -0.0000  -0.0000  -0.0000  -0.0000

          k = 0.0469 0.2616 0.0000 ( 14415 PWs)   bands (ev):

   -21.1756  -9.6834  -9.2228  -7.8924   2.1554   3.1168   3.4670   3.9819

     occupation numbers 
     1.0000   1.0000   1.0000   1.0000  -0.0000  -0.0000  -0.0000  -0.0000

          k = 0.0469 0.2977 0.0000 ( 14409 PWs)   bands (ev):

   -20.8203 -10.4930  -8.8027  -8.2249   2.6447   3.5853   3.9748   4.2168

     occupation numbers 
     1.0000   1.0000   1.0000   1.0000  -0.0000  -0.0000  -0.0000  -0.0000

          k = 0.0469 0.3338 0.0000 ( 14406 PWs)   bands (ev):

   -20.4212 -11.3170  -8.5312  -8.3368   3.1956   3.2943   4.2191   4.5479

     occupation numbers 
     1.0000   1.0000   1.0000   1.0000  -0.0000  -0.0000  -0.0000  -0.0000

          k = 0.0469 0.3699 0.0000 ( 14369 PWs)   bands (ev):

   -19.9791 -12.1428  -8.8046  -7.8302   2.4303   3.8069   4.8243   5.1848

     occupation numbers 
     1.0000   1.0000   1.0000   1.0000  -0.0000  -0.0000  -0.0000  -0.0000

          k = 0.0469 0.4059 0.0000 ( 14356 PWs)   bands (ev):

   -19.4954 -12.9607  -9.0406  -7.2913   1.5600   4.4738   5.3953   5.5044

     occupation numbers 
     1.0000   1.0000   1.0000   1.0000  -0.0000  -0.0000  -0.0000  -0.0000

          k = 0.0469 0.4420 0.0000 ( 14358 PWs)   bands (ev):

   -18.9719 -13.7620  -9.2354  -6.7343   0.7201   5.1271   5.3976   6.2463

     occupation numbers 
     1.0000   1.0000   1.0000   1.0000  -0.0000  -0.0000  -0.0000  -0.0000

          k = 0.0469 0.4781 0.0000 ( 14365 PWs)   bands (ev):

   -18.4121 -14.5385  -9.3866  -6.1847  -0.0537   5.2091   6.0437   7.0451

     occupation numbers 
     1.0000   1.0000   1.0000   1.0000  -0.0000  -0.0000  -0.0000  -0.0000

          k = 0.0469 0.5142 0.0000 ( 14370 PWs)   bands (ev):

   -17.8245 -15.2781  -9.4924  -5.6922  -0.7055   5.1721   6.8832   7.8944

     occupation numbers 
     1.0000   1.0000   1.0000   1.0000  -0.0000  -0.0000  -0.0000  -0.0000

          k = 0.0469 0.5503 0.0000 ( 14388 PWs)   bands (ev):

   -17.2477 -15.9401  -9.5515  -5.3475  -1.1400   5.1479   7.7824   8.7757

     occupation numbers 
     1.0000   1.0000   1.0000   1.0000  -0.0000  -0.0000  -0.0000  -0.0000

          k = 0.0469 0.5864 0.0000 ( 14388 PWs)   bands (ev):

   -17.0359 -16.1690  -9.5633  -5.2691  -1.2365   5.1429   8.2486   8.7359

     occupation numbers 
     1.0000   1.0000   1.0000   1.0000  -0.0000  -0.0000  -0.0000  -0.0000

          k = 0.0469-0.5322 0.0000 ( 14380 PWs)   bands (ev):

   -17.5285 -15.6251  -9.5278  -5.4938  -0.9576   5.1578   7.3263   8.3336

     occupation numbers 
     1.0000   1.0000   1.0000   1.0000  -0.0000  -0.0000  -0.0000  -0.0000

          k = 0.0469-0.4962 0.0000 ( 14371 PWs)   bands (ev):

   -18.1207 -14.9141  -9.4453  -5.9268  -0.3997   5.1901   6.4547   7.4640

     occupation numbers 
     1.0000   1.0000   1.0000   1.0000  -0.0000  -0.0000  -0.0000  -0.0000

          k = 0.0469-0.4601 0.0000 ( 14357 PWs)   bands (ev):

   -18.6962 -14.1539  -9.3166  -6.4562   0.3222   5.2183   5.6611   6.6388

     occupation numbers 
     1.0000   1.0000   1.0000   1.0000  -0.0000  -0.0000  -0.0000  -0.0000

          k = 0.0469-0.4240 0.0000 ( 14352 PWs)   bands (ev):

   -19.2384 -13.3639  -9.1433  -7.0138   1.1343   4.8198   5.3683   5.8680

     occupation numbers 
     1.0000   1.0000   1.0000   1.0000  -0.0000  -0.0000  -0.0000  -0.0000

          k = 0.0469-0.3879 0.0000 ( 14370 PWs)   bands (ev):

   -19.7424 -12.5533  -8.9275  -7.5641   1.9932   4.1341   5.1562   5.4282

     occupation numbers 
     1.0000   1.0000   1.0000   1.0000  -0.0000  -0.0000  -0.0000  -0.0000

          k = 0.0469-0.3518 0.0000 ( 14378 PWs)   bands (ev):

   -20.2055 -11.7303  -8.6723  -8.0882   2.8668   3.4939   4.5100   4.8588

     occupation numbers 
     1.0000   1.0000   1.0000   1.0000  -0.0000  -0.0000  -0.0000  -0.0000

          k = 0.0469-0.3157 0.0000 ( 14412 PWs)   bands (ev):

   -20.6262 -10.9041  -8.5752  -8.3818   2.9125   3.6537   4.0069   4.2533

     occupation numbers 
     1.0000   1.0000   1.0000   1.0000  -0.0000  -0.0000  -0.0000  -0.0000

          k = 0.0469-0.2797 0.0000 ( 14417 PWs)   bands (ev):

   -21.0035 -10.0856  -9.0187  -8.0614   2.3923   3.3509   3.7128   4.2145

     occupation numbers 
     1.0000   1.0000   1.0000   1.0000  -0.0000  -0.0000  -0.0000  -0.0000

          k = 0.0469-0.2436 0.0000 ( 14415 PWs)   bands (ev):

   -21.3365  -9.4145  -9.2886  -7.7188   1.9342   2.8949   3.2376   3.7576

     occupation numbers 
     1.0000   1.0000   1.0000   1.0000  -0.0000  -0.0000  -0.0000  -0.0000

          k = 0.0469-0.2075 0.0000 ( 14418 PWs)   bands (ev):

   -21.6247  -9.7595  -8.5301  -7.3638   1.5387   2.4955   2.8281   3.3528

     occupation numbers 
     1.0000   1.0000   1.0000   1.0000  -0.0000  -0.0000  -0.0000  -0.0000

          k = 0.0469-0.1714 0.0000 ( 14430 PWs)   bands (ev):

   -21.8674 -10.0518  -7.8312  -7.0097   1.2062   2.1584   2.4841   3.0125

     occupation numbers 
     1.0000   1.0000   1.0000   1.0000  -0.0000  -0.0000  -0.0000  -0.0000

          k = 0.0469-0.1353 0.0000 ( 14462 PWs)   bands (ev):

   -22.0644 -10.2899  -7.2159  -6.6742   0.9370   1.8848   2.2056   2.7361

     occupation numbers 
     1.0000   1.0000   1.0000   1.0000  -0.0000  -0.0000  -0.0000  -0.0000

          k = 0.0469-0.0992 0.0000 ( 14485 PWs)   bands (ev):

   -22.2154 -10.4729  -6.7103  -6.3798   0.7311   1.6754   1.9926   2.5245

     occupation numbers 
     1.0000   1.0000   1.0000   1.0000  -0.0000  -0.0000  -0.0000  -0.0000

          k = 0.0469-0.0631 0.0000 ( 14491 PWs)   bands (ev):

   -22.3200 -10.6000  -6.3384  -6.1538   0.5885   1.5303   1.8451   2.3789

     occupation numbers 
     1.0000   1.0000   1.0000   1.0000  -0.0000  -0.0000  -0.0000  -0.0000

          k = 0.0469-0.0271 0.0000 ( 14487 PWs)   bands (ev):

   -22.3782 -10.6708  -6.1184  -6.0238   0.5094   1.4496   1.7632   2.2968

     occupation numbers 
     1.0000   1.0000   1.0000   1.0000  -0.0000  -0.0000  -0.0000  -0.0000

          k = 0.0781 0.1353 0.0000 ( 14473 PWs)   bands (ev):

   -21.9949 -10.2057  -7.4038  -6.8382   1.0321   1.9815   2.3038   2.8334

     occupation numbers 
     1.0000   1.0000   1.0000   1.0000  -0.0000  -0.0000  -0.0000  -0.0000

          k = 0.0781 0.1714 0.0000 ( 14426 PWs)   bands (ev):

   -21.7980  -9.9680  -7.9633  -7.2054   1.3014   2.2549   2.5823   3.1095

     occupation numbers 
     1.0000   1.0000   1.0000   1.0000  -0.0000  -0.0000  -0.0000  -0.0000

          k = 0.0781 0.2075 0.0000 ( 14408 PWs)   bands (ev):

   -21.5555  -9.6762  -8.6129  -7.5882   1.6340   2.5919   2.9264   3.4502

     occupation numbers 
     1.0000   1.0000   1.0000   1.0000  -0.0000  -0.0000  -0.0000  -0.0000

          k = 0.0781 0.2436 0.0000 ( 14409 PWs)   bands (ev):

   -21.2676  -9.3326  -9.3318  -7.9652   2.0296   2.9914   3.3360   3.8550

     occupation numbers 
     1.0000   1.0000   1.0000   1.0000  -0.0000  -0.0000  -0.0000  -0.0000

          k = 0.0781 0.2797 0.0000 ( 14419 PWs)   bands (ev):

   -20.9349 -10.1007  -8.9368  -8.3234   2.4878   3.4477   3.8111   4.3067

     occupation numbers 
     1.0000   1.0000   1.0000   1.0000  -0.0000  -0.0000  -0.0000  -0.0000

          k = 0.0781 0.3157 0.0000 ( 14407 PWs)   bands (ev):

   -20.5580 -10.8980  -8.6542  -8.4940   3.0083   3.6194   4.0425   4.3518

     occupation numbers 
     1.0000   1.0000   1.0000   1.0000  -0.0000  -0.0000  -0.0000  -0.0000

[...]

   -20.5463 -11.1145  -8.4827  -8.3670   3.0221   3.5108   4.0725   4.3677

     occupation numbers 
     1.0000   1.0000   1.0000   1.0000  -0.0000  -0.0000  -0.0000  -0.0000

          k = 0.2656-0.1534 0.0000 ( 14417 PWs)   bands (ev):

   -20.7631 -10.7014  -8.7363  -8.1416   2.7226   3.6317   4.0566   4.0987

     occupation numbers 
     1.0000   1.0000   1.0000   1.0000  -0.0000  -0.0000  -0.0000  -0.0000

          k = 0.2969 0.5142 0.0000 ( 14359 PWs)   bands (ev):

   -16.4802 -14.5781 -13.2067  -4.0525  -1.7551   7.7424   8.7751  10.4125

     occupation numbers 
     1.0000   1.0000   1.0000   1.0000  -0.0000  -0.0000  -0.0000  -0.0000

          k = 0.2969 0.5503 0.0000 ( 14351 PWs)   bands (ev):

   -15.9531 -14.9882 -13.4443  -3.5618  -2.2408   7.6630   9.5275  10.3052

     occupation numbers 
     1.0000   1.0000   1.0000   1.0000  -0.0000  -0.0000  -0.0000  -0.0000

          k = 0.2969 0.5864 0.0000 ( 14341 PWs)   bands (ev):

   -15.7531 -15.1671 -13.4899  -3.4083  -2.3931   7.6441   9.8513  10.1587

     occupation numbers 
     1.0000   1.0000   1.0000   1.0000  -0.0000  -0.0000  -0.0000  -0.0000

          k = 0.2969 0.6225 0.0000 ( 14353 PWs)   bands (ev):

   -16.2097 -14.7767 -13.3508  -3.7921  -2.0127   7.6979   9.1596  10.3770

     occupation numbers 
     1.0000   1.0000   1.0000   1.0000  -0.0000  -0.0000  -0.0000  -0.0000

          k = 0.2969 0.6585 0.0000 ( 14355 PWs)   bands (ev):

   -16.7532 -14.4033 -13.0128  -4.3248  -1.4861   7.7851   8.3859  10.0943

     occupation numbers 
     1.0000   1.0000   1.0000   1.0000  -0.0000  -0.0000  -0.0000  -0.0000

          k = 0.2969 0.6946 0.0000 ( 14362 PWs)   bands (ev):

   -17.2905 -14.1156 -12.5046  -4.8769  -0.9392   7.6174   7.7869   9.2303

     occupation numbers 
     1.0000   1.0000   1.0000   1.0000  -0.0000  -0.0000  -0.0000  -0.0000

          k = 0.2969 0.7307 0.0000 ( 14363 PWs)   bands (ev):

   -17.8040 -13.8654 -11.8997  -5.4191  -0.3955   6.8833   7.5366   8.4289

     occupation numbers 
     1.0000   1.0000   1.0000   1.0000  -0.0000  -0.0000  -0.0000  -0.0000

          k = 0.2969-0.3879 0.0000 ( 14390 PWs)   bands (ev):

   -18.2861 -13.6121 -11.2575  -5.9388   0.1394   6.1960   7.0603   7.6922

     occupation numbers 
     1.0000   1.0000   1.0000   1.0000  -0.0000  -0.0000  -0.0000  -0.0000

          k = 0.2969-0.3518 0.0000 ( 14384 PWs)   bands (ev):

   -18.7324 -13.3371 -10.6162  -6.4281   0.6650   5.5621   6.5112   7.0204

     occupation numbers 
     1.0000   1.0000   1.0000   1.0000  -0.0000  -0.0000  -0.0000  -0.0000

          k = 0.2969-0.3157 0.0000 ( 14377 PWs)   bands (ev):

   -19.1402 -13.0331 -10.0059  -6.8813   1.1820   4.9851   5.9718   6.4137

     occupation numbers 
     1.0000   1.0000   1.0000   1.0000  -0.0000  -0.0000  -0.0000  -0.0000

          k = 0.2969-0.2797 0.0000 ( 14382 PWs)   bands (ev):

   -19.5074 -12.6985  -9.4554  -7.2941   1.6903   4.4675   5.4725   5.8717

     occupation numbers 
     1.0000   1.0000   1.0000   1.0000  -0.0000  -0.0000  -0.0000  -0.0000

          k = 0.2969-0.2436 0.0000 ( 14367 PWs)   bands (ev):

   -19.8326 -12.3347  -8.9936  -7.6631   2.1875   4.0114   5.0257   5.3972

     occupation numbers 
     1.0000   1.0000   1.0000   1.0000  -0.0000  -0.0000  -0.0000  -0.0000

          k = 0.2969-0.2075 0.0000 ( 14387 PWs)   bands (ev):

   -20.1147 -11.9451  -8.6475  -7.9855   2.6675   3.6182   4.6383   4.9888

     occupation numbers 
     1.0000   1.0000   1.0000   1.0000  -0.0000  -0.0000  -0.0000  -0.0000

          k = 0.2969-0.1714 0.0000 ( 14407 PWs)   bands (ev):

   -20.3528 -11.5354  -8.4367  -8.2592   3.1181   3.2885   4.3153   4.6458

     occupation numbers 
     1.0000   1.0000   1.0000   1.0000  -0.0000  -0.0000  -0.0000  -0.0000

          k = 0.3281 0.5683 0.0000 ( 14338 PWs)   bands (ev):

   -15.4923 -15.2717 -13.6910  -3.0447  -2.7433   7.5839  10.0919  10.2438

     occupation numbers 
     1.0000   1.0000   1.0000   1.0038  -0.0038  -0.0000  -0.0000  -0.0000

          k = 0.3281 0.6044 0.0000 ( 14351 PWs)   bands (ev):

   -15.7101 -15.1166 -13.6051  -3.2977  -2.4952   7.6110   9.8454  10.2963

     occupation numbers 
     1.0000   1.0000   1.0000   1.0000  -0.0000  -0.0000  -0.0000  -0.0000

          k = 0.3281 0.6405 0.0000 ( 14357 PWs)   bands (ev):

   -16.2079 -14.8831 -13.2258  -3.8280  -1.9883   7.7349   9.1740  10.2143

     occupation numbers 
     1.0000   1.0000   1.0000   1.0000  -0.0000  -0.0000  -0.0000  -0.0000

          k = 0.3281 0.6766 0.0000 ( 14350 PWs)   bands (ev):

   -16.7285 -14.7041 -12.6813  -4.3595  -1.4930   7.8980   8.4308   9.6385

     occupation numbers 
     1.0000   1.0000   1.0000   1.0000  -0.0000  -0.0000  -0.0000  -0.0000

          k = 0.3281 0.7127 0.0000 ( 14367 PWs)   bands (ev):

   -17.2406 -14.5235 -12.0652  -4.8822  -1.0102   7.6929   7.9523   8.8657

     occupation numbers 
     1.0000   1.0000   1.0000   1.0000  -0.0000  -0.0000  -0.0000  -0.0000

          k = 0.3281 0.7488 0.0000 ( 14386 PWs)   bands (ev):

   -17.7297 -14.3176 -11.4265  -5.3883  -0.5371   6.9888   7.7114   8.0529

     occupation numbers 
     1.0000   1.0000   1.0000   1.0000  -0.0000  -0.0000  -0.0000  -0.0000

          k = 0.3281-0.3699 0.0000 ( 14374 PWs)   bands (ev):

   -18.1879 -14.0780 -10.7960  -5.8705  -0.0695   6.3309   7.2404   7.2723

     occupation numbers 
     1.0000   1.0000   1.0000   1.0000  -0.0000  -0.0000  -0.0000  -0.0000

          k = 0.3281-0.3338 0.0000 ( 14380 PWs)   bands (ev):

   -18.6107 -13.8023 -10.2001  -6.3229   0.3963   5.7259   6.5708   6.7090

     occupation numbers 
     1.0000   1.0000   1.0000   1.0000  -0.0000  -0.0000  -0.0000  -0.0000

          k = 0.3281-0.2977 0.0000 ( 14370 PWs)   bands (ev):

   -18.9952 -13.4908  -9.6657  -6.7402   0.8623   5.1783   5.9856   6.1938

     occupation numbers 
     1.0000   1.0000   1.0000   1.0000  -0.0000  -0.0000  -0.0000  -0.0000

          k = 0.3281-0.2616 0.0000 ( 14374 PWs)   bands (ev):

   -19.3391 -13.1452  -9.2209  -7.1182   1.3281   4.6926   5.5489   5.7210

     occupation numbers 
     1.0000   1.0000   1.0000   1.0000  -0.0000  -0.0000  -0.0000  -0.0000

          k = 0.3281-0.2255 0.0000 ( 14363 PWs)   bands (ev):

   -19.6410 -12.7689  -8.8921  -7.4534   1.7901   4.2710   5.2893   5.3016

     occupation numbers 
     1.0000   1.0000   1.0000   1.0000  -0.0000  -0.0000  -0.0000  -0.0000

          k = 0.3281-0.1894 0.0000 ( 14367 PWs)   bands (ev):

   -19.8999 -12.3666  -8.6989  -7.7433   2.2407   3.9134   4.9399   5.2201

     occupation numbers 
     1.0000   1.0000   1.0000   1.0000  -0.0000  -0.0000  -0.0000  -0.0000

          k = 0.3594 0.6225 0.0000 ( 14320 PWs)   bands (ev):

   -15.8524 -15.2230 -13.2911  -3.5802  -2.2376   7.7083   9.8213   9.9581

     occupation numbers 
     1.0000   1.0000   1.0000   1.0000  -0.0000  -0.0000  -0.0000  -0.0000

          k = 0.3594 0.6585 0.0000 ( 14348 PWs)   bands (ev):

   -16.2147 -15.2393 -12.7624  -3.9951  -1.8757   7.9114   9.2389   9.6073

     occupation numbers 
     1.0000   1.0000   1.0000   1.0000  -0.0000  -0.0000  -0.0000  -0.0000

          k = 0.3594 0.6946 0.0000 ( 14360 PWs)   bands (ev):

   -16.6771 -15.1508 -12.1595  -4.4433  -1.4970   8.1436   8.5238   8.8445

     occupation numbers 
     1.0000   1.0000   1.0000   1.0000  -0.0000  -0.0000  -0.0000  -0.0000

          k = 0.3594 0.7307 0.0000 ( 14362 PWs)   bands (ev):

   -17.1537 -14.9988 -11.5364  -4.8984  -1.1136   7.8030   8.0391   8.2228

     occupation numbers 
     1.0000   1.0000   1.0000   1.0000  -0.0000  -0.0000  -0.0000  -0.0000

          k = 0.3594 0.7668 0.0000 ( 14367 PWs)   bands (ev):

   -17.6146 -14.7971 -10.9234  -5.3466  -0.7243   7.0928   7.2865   7.9604

     occupation numbers 
     1.0000   1.0000   1.0000   1.0000  -0.0000  -0.0000  -0.0000  -0.0000

          k = 0.3594-0.3518 0.0000 ( 14371 PWs)   bands (ev):

   -18.0474 -14.5510 -10.3462  -5.7779  -0.3257   6.4123   6.6292   7.4847

     occupation numbers 
     1.0000   1.0000   1.0000   1.0000  -0.0000  -0.0000  -0.0000  -0.0000

          k = 0.3594-0.3157 0.0000 ( 14381 PWs)   bands (ev):

   -18.4459 -14.2638  -9.8311  -6.1844   0.0844   5.8136   6.0604   6.9681

     occupation numbers 
     1.0000   1.0000   1.0000   1.0000  -0.0000  -0.0000  -0.0000  -0.0000

          k = 0.3594-0.2797 0.0000 ( 14362 PWs)   bands (ev):

   -18.8065 -13.9382  -9.4059  -6.5599   0.5059   5.3302   5.5850   6.4759

     occupation numbers 
     1.0000   1.0000   1.0000   1.0000  -0.0000  -0.0000  -0.0000  -0.0000

          k = 0.3594-0.2436 0.0000 ( 14359 PWs)   bands (ev):

   -19.1270 -13.5775  -9.0968  -6.8990   0.9358   4.9383   5.2595   6.0293

     occupation numbers 
     1.0000   1.0000   1.0000   1.0000  -0.0000  -0.0000  -0.0000  -0.0000

          k = 0.3594-0.2075 0.0000 ( 14373 PWs)   bands (ev):

   -19.4055 -13.1859  -8.9234  -7.1980   1.3676   4.5844   5.1595   5.6369

     occupation numbers 
     1.0000   1.0000   1.0000   1.0000  -0.0000  -0.0000  -0.0000  -0.0000

          k = 0.3906 0.6766 0.0000 ( 14352 PWs)   bands (ev):

   -16.3184 -15.5317 -12.1903  -4.2578  -1.6988   8.1900   8.7973   9.3253

     occupation numbers 
     1.0000   1.0000   1.0000   1.0000  -0.0000  -0.0000  -0.0000  -0.0000

          k = 0.3906 0.7127 0.0000 ( 14368 PWs)   bands (ev):

   -16.6255 -15.5812 -11.5907  -4.5803  -1.4759   7.9709   8.4784   8.7207

     occupation numbers 
     1.0000   1.0000   1.0000   1.0000  -0.0000  -0.0000  -0.0000  -0.0000

          k = 0.3906 0.7488 0.0000 ( 14375 PWs)   bands (ev):

   -17.0383 -15.4629 -10.9996  -4.9356  -1.2157   7.1694   8.0489   8.5616

     occupation numbers 
     1.0000   1.0000   1.0000   1.0000  -0.0000  -0.0000  -0.0000  -0.0000

          k = 0.3906 0.7848 0.0000 ( 14375 PWs)   bands (ev):

   -17.4622 -15.2622 -10.4438  -5.3033  -0.9215   6.4437   7.4113   8.2656

     occupation numbers 
     1.0000   1.0000   1.0000   1.0000  -0.0000  -0.0000  -0.0000  -0.0000

          k = 0.3906-0.3338 0.0000 ( 14373 PWs)   bands (ev):

   -17.8663 -15.0061  -9.9502  -5.6681  -0.5955   5.8335   6.8220   7.7854

     occupation numbers 
     1.0000   1.0000   1.0000   1.0000  -0.0000  -0.0000  -0.0000  -0.0000

          k = 0.3906-0.2977 0.0000 ( 14372 PWs)   bands (ev):

   -18.2392 -14.7046  -9.5464  -6.0182  -0.2406   5.3735   6.2881   7.2849

     occupation numbers 
     1.0000   1.0000   1.0000   1.0000  -0.0000  -0.0000  -0.0000  -0.0000

          k = 0.3906-0.2616 0.0000 ( 14363 PWs)   bands (ev):

   -18.5754 -14.3629  -9.2587  -6.3444   0.1385   5.0920   5.8154   6.8159

     occupation numbers 
     1.0000   1.0000   1.0000   1.0000  -0.0000  -0.0000  -0.0000  -0.0000

          k = 0.3906-0.2255 0.0000 ( 14376 PWs)   bands (ev):

   -18.8720 -13.9856  -9.1066  -6.6398   0.5342   4.9976   5.4190   6.3951

     occupation numbers 
     1.0000   1.0000   1.0000   1.0000  -0.0000  -0.0000  -0.0000  -0.0000

          k = 0.4219 0.7307 0.0000 ( 14380 PWs)   bands (ev):

   -16.6686 -15.8627 -11.0249  -4.7701  -1.4083   7.1617   8.8914   9.0135

     occupation numbers 
     1.0000   1.0000   1.0000   1.0000  -0.0000  -0.0000  -0.0000  -0.0000

          k = 0.4219 0.7668 0.0000 ( 14375 PWs)   bands (ev):

   -16.9217 -15.8664 -10.4927  -5.0049  -1.2815   6.4267   8.3060   8.9262

     occupation numbers 
     1.0000   1.0000   1.0000   1.0000  -0.0000  -0.0000  -0.0000  -0.0000

          k = 0.4219 0.8029 0.0000 ( 14382 PWs)   bands (ev):

   -17.2814 -15.6899 -10.0220  -5.2706  -1.0930   5.8074   7.7006   8.6156

     occupation numbers 
     1.0000   1.0000   1.0000   1.0000  -0.0000  -0.0000  -0.0000  -0.0000

          k = 0.4219-0.3157 0.0000 ( 14376 PWs)   bands (ev):

   -17.6487 -15.4295  -9.6409  -5.5511  -0.8473   5.3395   7.1422   8.1386

     occupation numbers 
     1.0000   1.0000   1.0000   1.0000  -0.0000  -0.0000  -0.0000  -0.0000

          k = 0.4219-0.2797 0.0000 ( 14377 PWs)   bands (ev):

   -17.9928 -15.1149  -9.3757  -5.8315  -0.5527   5.0534   6.6385   7.6564

     occupation numbers 
     1.0000   1.0000   1.0000   1.0000  -0.0000  -0.0000  -0.0000  -0.0000

          k = 0.4219-0.2436 0.0000 ( 14356 PWs)   bands (ev):

   -18.3033 -14.7572  -9.2460  -6.0991  -0.2197   4.9699   6.1939   7.2112

     occupation numbers 
     1.0000   1.0000   1.0000   1.0000  -0.0000  -0.0000  -0.0000  -0.0000

          k = 0.4531 0.7848 0.0000 ( 14380 PWs)   bands (ev):

   -16.9022 -16.1023 -10.0460  -5.1137  -1.2836   5.7977   8.5820   8.6786

     occupation numbers 
     1.0000   1.0000   1.0000   1.0000  -0.0000  -0.0000  -0.0000  -0.0000

          k = 0.4531 0.8209 0.0000 ( 14392 PWs)   bands (ev):

   -17.1002 -16.0457  -9.6883  -5.2614  -1.2078   5.3200   8.0521   9.0120

     occupation numbers 
     1.0000   1.0000   1.0000   1.0000  -0.0000  -0.0000  -0.0000  -0.0000

          k = 0.4531-0.2977 0.0000 ( 14379 PWs)   bands (ev):

   -17.4035 -15.8068  -9.4464  -5.4395  -1.0534   5.0246   7.5254   8.5398

     occupation numbers 
     1.0000   1.0000   1.0000   1.0000  -0.0000  -0.0000  -0.0000  -0.0000

          k = 0.4531-0.2616 0.0000 ( 14360 PWs)   bands (ev):

   -17.7110 -15.4864  -9.3398  -5.6344  -0.8299   4.9333   7.0526   8.0784

     occupation numbers 
     1.0000   1.0000   1.0000   1.0000  -0.0000  -0.0000  -0.0000  -0.0000

          k = 0.4844 0.8390 0.0000 ( 14374 PWs)   bands (ev):

   -17.0191 -16.2256  -9.4701  -5.2860  -1.2435   5.0146   8.4227   8.5075

     occupation numbers 
     1.0000   1.0000   1.0000   1.0000  -0.0000  -0.0000  -0.0000  -0.0000

          k = 0.4844-0.2797 0.0000 ( 14368 PWs)   bands (ev):

   -17.1598 -16.1065  -9.3870  -5.3472  -1.1906   4.9135   7.9666   8.9337

     occupation numbers 
     1.0000   1.0000   1.0000   1.0000  -0.0000  -0.0000  -0.0000  -0.0000

     the Fermi energy is    -2.8940 ev

!    total energy              =     -24.12345186 Ry
     estimated scf accuracy    <          9.9E-13 Ry
     smearing contrib. (-TS)   =       0.00000036 Ry
     internal energy E=F+TS    =     -24.12345222 Ry

     The total energy is F=E-TS. E is the sum of the following terms:
     one-electron contribution =    -288.87935771 Ry
     hartree contribution      =     145.60752895 Ry
     xc contribution           =      -8.57957366 Ry
     ewald contribution        =     127.72795019 Ry

     convergence has been achieved in   8 iterations


     Computing stress (Cartesian axis) and pressure

          total   stress  (Ry/bohr**3)                   (kbar)     P=        2.60
   0.00002650   0.00000000   0.00000000            3.90        0.00        0.00
   0.00000000   0.00002650   0.00000000            0.00        3.90        0.00
   0.00000000   0.00000000  -0.00000003            0.00        0.00       -0.00

     kinetic stress (kbar)   1901.75     -0.00      0.00
                               -0.00   1901.75      0.00
                               -0.00     -0.00   2080.54

     local   stress (kbar) -51720.72      0.00     -0.00
                                0.00 -51720.72      0.00
                               -0.00      0.00  52318.83

     nonloc. stress (kbar)   -225.93      0.00      0.00
                                0.00   -225.93      0.00
                                0.00      0.00   -188.33

     hartree stress (kbar)  24992.99     -0.00      0.00
                               -0.00  24992.99      0.00
                                0.00      0.00 -24853.85

     exc-cor stress (kbar)   -147.37      0.00      0.00
                                0.00   -147.37      0.00
                                0.00      0.00   -147.37

     corecor stress (kbar)   -285.69      0.00     -0.00
                                0.00   -285.69     -0.00
                               -0.00     -0.00   -278.19

     ewald   stress (kbar)  25488.87     -0.00      0.00
                               -0.00  25488.87      0.00
                                0.00      0.00 -28931.64

     hubbard stress (kbar)      0.00      0.00      0.00
                                0.00      0.00      0.00
                                0.00      0.00      0.00

     DFT-D   stress (kbar)      0.00      0.00      0.00
                                0.00      0.00      0.00
                                0.00      0.00      0.00

     XDM     stress (kbar)      0.00      0.00      0.00
                                0.00      0.00      0.00
                                0.00      0.00      0.00

     dft-nl  stress (kbar)      0.00      0.00      0.00
                                0.00      0.00      0.00
                                0.00      0.00      0.00

     TS-vdW  stress (kbar)      0.00      0.00      0.00
                                0.00      0.00      0.00
                                0.00      0.00      0.00


                                0.00      0.00      0.00
                                0.00      0.00      0.00


                                0.00      0.00      0.00


     Writing all to output data dir ./graphene.save/
 
     init_run     :      0.28s CPU      0.42s WALL (       1 calls)
     electrons    :      4.64s CPU      4.74s WALL (       1 calls)
     stress       :      0.19s CPU      0.20s WALL (       1 calls)

     Called by init_run:
     wfcinit      :      0.09s CPU      0.11s WALL (       1 calls)
     wfcinit:atom :      0.00s CPU      0.00s WALL (       1 calls)
     wfcinit:wfcr :      0.09s CPU      0.10s WALL (       1 calls)
     potinit      :      0.07s CPU      0.08s WALL (       1 calls)
     hinit0       :      0.06s CPU      0.15s WALL (       1 calls)

     Called by electrons:
     c_bands      :      3.37s CPU      3.39s WALL (       8 calls)
     sum_band     :      0.73s CPU      0.74s WALL (       8 calls)
     v_of_rho     :      0.19s CPU      0.19s WALL (       9 calls)
     v_h          :      0.07s CPU      0.07s WALL (       9 calls)
     v_xc         :      0.13s CPU      0.13s WALL (      10 calls)
     mix_rho      :      0.13s CPU      0.15s WALL (       8 calls)

     Called by c_bands:
     init_us_2    :      0.03s CPU      0.04s WALL (      17 calls)
     init_us_2:cp :      0.03s CPU      0.04s WALL (      17 calls)
     cegterg      :      2.50s CPU      2.52s WALL (       8 calls)

     Called by sum_band:
     sum_band:wei :      0.02s CPU      0.02s WALL (       8 calls)
     sum_band:loo :      0.46s CPU      0.46s WALL (       8 calls)
     sum_band:buf :      0.00s CPU      0.00s WALL (       8 calls)
     sum_band:ini :      0.02s CPU      0.02s WALL (       8 calls)

     Called by *egterg:
     cdiaghg      :      0.01s CPU      0.02s WALL (      50 calls)
     cegterg:over :      0.09s CPU      0.09s WALL (      42 calls)
     cegterg:upda :      0.05s CPU      0.05s WALL (      42 calls)
     cegterg:last :      0.05s CPU      0.05s WALL (      23 calls)
     h_psi        :      2.35s CPU      2.37s WALL (      51 calls)
     g_psi        :      0.01s CPU      0.01s WALL (      42 calls)

     Called by h_psi:
     h_psi:calbec :      0.05s CPU      0.05s WALL (      51 calls)
     vloc_psi     :      2.24s CPU      2.25s WALL (      51 calls)
     add_vuspsi   :      0.05s CPU      0.05s WALL (      51 calls)

     General routines
     calbec       :      0.05s CPU      0.05s WALL (      52 calls)
     fft          :      0.09s CPU      0.16s WALL (      31 calls)
     ffts         :      0.03s CPU      0.03s WALL (       8 calls)
     fftw         :      1.87s CPU      1.88s WALL (     518 calls)
 
     Parallel routines
 
     PWSCF        :      5.42s CPU      5.99s WALL

 
   This run was terminated on:  21: 7:37  10Jun2022            

=------------------------------------------------------------------------------=
   JOB DONE.
=------------------------------------------------------------------------------=
TACC:  Shutdown complete. Exiting. 
