
     Program PWSCF v.6.4.1 starts on  2Aug2021 at 11:44:49 

     This program is part of the open-source Quantum ESPRESSO suite
     for quantum simulation of materials; please cite
         "P. Giannozzi et al., J. Phys.:Condens. Matter 21 395502 (2009);
         "P. Giannozzi et al., J. Phys.:Condens. Matter 29 465901 (2017);
          URL http://www.quantum-espresso.org", 
     in publications or presentations arising from this work. More details at
     http://www.quantum-espresso.org/quote

     Parallel version (MPI & OpenMP), running on      12 processor cores
     Number of MPI processes:                 1
     Threads/MPI process:                    12

     MPI processes distributed on     1 nodes
     Waiting for input...
     Reading input from standard input

     Current dimensions of program PWSCF are:
     Max number of different atomic species (ntypx) = 10
     Max number of k-points (npk) =  40000
     Max angular momentum in pseudopotentials (lmaxx) =  3

     Subspace diagonalization in iterative solution of the eigenvalue problem:
     a serial algorithm will be used


     G-vector sticks info
     --------------------
     sticks:   dense  smooth     PW     G-vecs:    dense   smooth      PW
     Sum         595     595    187                38705    38705    6731



     bravais-lattice index     =            4
     lattice parameter (alat)  =       4.7000  a.u.
     unit-cell volume          =     287.7227 (a.u.)^3
     number of atoms/cell      =            4
     number of atomic types    =            1
     number of electrons       =        16.00
     number of Kohn-Sham states=            8
     kinetic-energy cutoff     =     100.0000  Ry
     charge density cutoff     =     400.0000  Ry
     convergence threshold     =      1.0E-06
     mixing beta               =       0.7000
     number of iterations used =            8  plain     mixing
     Exchange-correlation      = SLA PZ NOGX NOGC ( 1  1  0  0 0 0)

     celldm(1)=   4.700000  celldm(2)=   0.000000  celldm(3)=   3.200000
     celldm(4)=   0.000000  celldm(5)=   0.000000  celldm(6)=   0.000000

     crystal axes: (cart. coord. in units of alat)
               a(1) = (   1.000000   0.000000   0.000000 )  
               a(2) = (  -0.500000   0.866025   0.000000 )  
               a(3) = (   0.000000   0.000000   3.200000 )  

     reciprocal axes: (cart. coord. in units 2 pi/alat)
               b(1) = (  1.000000  0.577350 -0.000000 )  
               b(2) = (  0.000000  1.154701  0.000000 )  
               b(3) = (  0.000000 -0.000000  0.312500 )  


     PseudoPot. # 1 for C  read from file:
     ./\C.pz-vbc.UPF
     MD5 check sum: f697e42eaa1e52b77fcf7925dd36a1dd
     Pseudo is Norm-conserving, Zval =  4.0
     Generated by new atomic code, or converted to UPF format
     Using radial grid of  269 points,  1 beta functions with: 
                l(1) =   0

     atomic species   valence    mass     pseudopotential
        C              4.00     1.00000     C ( 1.00)

     24 Sym. Ops., with inversion, found (12 have fractional translation)



   Cartesian axes

     site n.     atom                  positions (alat units)
         1           C   tau(   1) = (   0.0000000   0.0000000   0.8000000  )
         2           C   tau(   2) = (   0.0000000   0.0000000   2.4000000  )
         3           C   tau(   3) = (  -0.0000005   0.5773506   0.8000000  )
         4           C   tau(   4) = (   0.5000005   0.2886748   2.4000000  )

     number of k points=    36
                       cart. coord. in units 2pi/alat
        k(    1) = (   0.0833333   0.1443376   0.0260417), wk =   0.0370370
        k(    2) = (   0.0833333   0.1443376   0.0781250), wk =   0.0370370
        k(    3) = (   0.0833333   0.1443376   0.1302083), wk =   0.0370370
        k(    4) = (   0.0833333   0.3367877   0.0260417), wk =   0.0740741
        k(    5) = (   0.0833333   0.3367877   0.0781250), wk =   0.0740741
        k(    6) = (   0.0833333   0.3367877   0.1302083), wk =   0.0740741
        k(    7) = (   0.0833333   0.5292377   0.0260417), wk =   0.0740741
        k(    8) = (   0.0833333   0.5292377   0.0781250), wk =   0.0740741
        k(    9) = (   0.0833333   0.5292377   0.1302083), wk =   0.0740741
        k(   10) = (   0.0833333  -0.4330127   0.0260417), wk =   0.0740741
        k(   11) = (   0.0833333  -0.4330127   0.0781250), wk =   0.0740741
        k(   12) = (   0.0833333  -0.4330127   0.1302083), wk =   0.0740741
        k(   13) = (   0.0833333  -0.2405626   0.0260417), wk =   0.0740741
        k(   14) = (   0.0833333  -0.2405626   0.0781250), wk =   0.0740741
        k(   15) = (   0.0833333  -0.2405626   0.1302083), wk =   0.0740741
        k(   16) = (   0.0833333  -0.0481125   0.0260417), wk =   0.0370370
        k(   17) = (   0.0833333  -0.0481125   0.0781250), wk =   0.0370370
        k(   18) = (   0.0833333  -0.0481125   0.1302083), wk =   0.0370370
        k(   19) = (   0.2500000   0.4330127   0.0260417), wk =   0.0370370
        k(   20) = (   0.2500000   0.4330127   0.0781250), wk =   0.0370370
        k(   21) = (   0.2500000   0.4330127   0.1302083), wk =   0.0370370
        k(   22) = (   0.2500000   0.6254628   0.0260417), wk =   0.0740741
        k(   23) = (   0.2500000   0.6254628   0.0781250), wk =   0.0740741
        k(   24) = (   0.2500000   0.6254628   0.1302083), wk =   0.0740741
        k(   25) = (   0.2500000  -0.3367877   0.0260417), wk =   0.0740741
        k(   26) = (   0.2500000  -0.3367877   0.0781250), wk =   0.0740741
        k(   27) = (   0.2500000  -0.3367877   0.1302083), wk =   0.0740741
        k(   28) = (   0.2500000  -0.1443376   0.0260417), wk =   0.0370370
        k(   29) = (   0.2500000  -0.1443376   0.0781250), wk =   0.0370370
        k(   30) = (   0.2500000  -0.1443376   0.1302083), wk =   0.0370370
        k(   31) = (   0.4166667   0.7216878   0.0260417), wk =   0.0370370
        k(   32) = (   0.4166667   0.7216878   0.0781250), wk =   0.0370370
        k(   33) = (   0.4166667   0.7216878   0.1302083), wk =   0.0370370
        k(   34) = (   0.4166667  -0.2405626   0.0260417), wk =   0.0370370
        k(   35) = (   0.4166667  -0.2405626   0.0781250), wk =   0.0370370
        k(   36) = (   0.4166667  -0.2405626   0.1302083), wk =   0.0370370

     Dense  grid:    38705 G-vectors     FFT dimensions: (  30,  30,  96)

     Estimated max dynamical RAM per process >      49.07 MB

     Initial potential from superposition of free atoms

     starting charge   15.99989, renormalised to   16.00000
     Starting wfcs are   16 randomized atomic wfcs

     total cpu time spent up to now is        0.9 secs

     Self-consistent Calculation

     iteration #  1     ecut=   100.00 Ry     beta= 0.70
     Davidson diagonalization with overlap
     ethr =  1.00E-02,  avg # of iterations =  2.2

     total cpu time spent up to now is        1.8 secs

     total energy              =     -45.51705442 Ry
     Harris-Foulkes estimate   =     -45.77295072 Ry
     estimated scf accuracy    <       0.40696042 Ry

     iteration #  2     ecut=   100.00 Ry     beta= 0.70
     Davidson diagonalization with overlap
     ethr =  2.54E-03,  avg # of iterations =  2.0

     total cpu time spent up to now is        2.6 secs

     total energy              =     -45.58987554 Ry
     Harris-Foulkes estimate   =     -45.59138842 Ry
     estimated scf accuracy    <       0.00522751 Ry

     iteration #  3     ecut=   100.00 Ry     beta= 0.70
     Davidson diagonalization with overlap
     ethr =  3.27E-05,  avg # of iterations =  2.0

     total cpu time spent up to now is        3.4 secs

     total energy              =     -45.59050863 Ry
     Harris-Foulkes estimate   =     -45.59054505 Ry
     estimated scf accuracy    <       0.00031050 Ry

     iteration #  4     ecut=   100.00 Ry     beta= 0.70
     Davidson diagonalization with overlap
     ethr =  1.94E-06,  avg # of iterations =  2.7

     total cpu time spent up to now is        4.2 secs

     total energy              =     -45.59055635 Ry
     Harris-Foulkes estimate   =     -45.59055697 Ry
     estimated scf accuracy    <       0.00000181 Ry

     iteration #  5     ecut=   100.00 Ry     beta= 0.70
     Davidson diagonalization with overlap
     ethr =  1.13E-08,  avg # of iterations =  3.9

     total cpu time spent up to now is        5.8 secs

     End of self-consistent calculation

          k = 0.0833 0.1443 0.0260 (  4879 PWs)   bands (ev):

   -13.7676 -13.6949  -2.4978  -1.7343   0.0717   0.0773   0.7067   0.7106

          k = 0.0833 0.1443 0.0781 (  4890 PWs)   bands (ev):

   -13.7580 -13.7048  -2.4051  -1.8480   0.0725   0.0766   0.7072   0.7100

          k = 0.0833 0.1443 0.1302 (  4888 PWs)   bands (ev):

   -13.7413 -13.7218  -2.2386  -2.0353   0.0738   0.0753   0.7082   0.7092

          k = 0.0833 0.3368 0.0260 (  4873 PWs)   bands (ev):

   -12.2037 -12.1401  -3.6017  -3.5791  -1.1452  -1.1346  -0.6047   0.0836

          k = 0.0833 0.3368 0.0781 (  4872 PWs)   bands (ev):

   -12.1953 -12.1487  -3.5987  -3.5821  -1.1438  -1.1360  -0.5204  -0.0178

          k = 0.0833 0.3368 0.1302 (  4874 PWs)   bands (ev):

   -12.1806 -12.1636  -3.5935  -3.5874  -1.1414  -1.1385  -0.3693  -0.1858

          k = 0.0833 0.5292 0.0260 (  4838 PWs)   bands (ev):

    -9.5301  -9.4837  -7.5607  -7.5238  -2.0908  -2.0783   2.1958   2.5762

          k = 0.0833 0.5292 0.0781 (  4838 PWs)   bands (ev):

    -9.5239  -9.4900  -7.5559  -7.5288  -2.0891  -2.0800   2.2468   2.5256

          k = 0.0833 0.5292 0.1302 (  4841 PWs)   bands (ev):

    -9.5132  -9.5008  -7.5474  -7.5375  -2.0862  -2.0829   2.3353   2.4375

          k = 0.0833-0.4330 0.0260 (  4856 PWs)   bands (ev):

   -10.9808 -10.9240  -5.6638  -5.6323  -1.7684  -1.7565   0.7987   1.3990

          k = 0.0833-0.4330 0.0781 (  4860 PWs)   bands (ev):

   -10.9732 -10.9317  -5.6596  -5.6366  -1.7668  -1.7581   0.8734   1.3121

          k = 0.0833-0.4330 0.1302 (  4860 PWs)   bands (ev):

   -10.9602 -10.9450  -5.6523  -5.6439  -1.7641  -1.7608   1.0065   1.1668

          k = 0.0833-0.2406 0.0260 (  4883 PWs)   bands (ev):

   -13.1381 -13.0691  -1.7278  -1.5881  -1.5750  -0.9918  -0.2747  -0.2669

          k = 0.0833-0.2406 0.0781 (  4883 PWs)   bands (ev):

   -13.1290 -13.0785  -1.6383  -1.5863  -1.5767  -1.1009  -0.2737  -0.2679

          k = 0.0833-0.2406 0.1302 (  4877 PWs)   bands (ev):

   -13.1132 -13.0947  -1.5833  -1.5798  -1.4772  -1.2812  -0.2718  -0.2698

          k = 0.0833-0.0481 0.0260 (  4868 PWs)   bands (ev):

   -14.0841 -14.0094  -2.8877  -2.1116   1.0727   1.0783   1.3716   1.3762

          k = 0.0833-0.0481 0.0781 (  4865 PWs)   bands (ev):

   -14.0742 -14.0196  -2.7936  -2.2273   1.0734   1.0776   1.3722   1.3756

          k = 0.0833-0.0481 0.1302 (  4889 PWs)   bands (ev):

   -14.0571 -14.0371  -2.6245  -2.4179   1.0747   1.0762   1.3732   1.3745

          k = 0.2500 0.4330 0.0260 (  4843 PWs)   bands (ev):

   -10.0923 -10.0406  -5.5237  -5.5081  -4.1073  -4.0952   1.8467   2.3966

          k = 0.2500 0.4330 0.0781 (  4840 PWs)   bands (ev):

   -10.0854 -10.0476  -5.5216  -5.5101  -4.1058  -4.0969   1.9157   2.3176

          k = 0.2500 0.4330 0.1302 (  4840 PWs)   bands (ev):

   -10.0735 -10.0596  -5.5179  -5.5137  -4.1031  -4.0998   2.0381   2.1850

          k = 0.2500 0.6255 0.0260 (  4842 PWs)   bands (ev):

    -8.6998  -8.6584  -6.9182  -6.8904  -4.7977  -4.7766   3.2952   3.6743

          k = 0.2500 0.6255 0.0781 (  4839 PWs)   bands (ev):

    -8.6943  -8.6640  -6.9145  -6.8941  -4.7949  -4.7795   3.3456   3.6234

          k = 0.2500 0.6255 0.1302 (  4836 PWs)   bands (ev):

    -8.6847  -8.6736  -6.9081  -6.9006  -4.7901  -4.7844   3.4333   3.5352

          k = 0.2500-0.3368 0.0260 (  4855 PWs)   bands (ev):

   -11.2850 -11.2266  -4.5449  -4.5230  -2.6463  -2.6318   0.4807   1.1153

          k = 0.2500-0.3368 0.0781 (  4862 PWs)   bands (ev):

   -11.2773 -11.2345  -4.5419  -4.5259  -2.6444  -2.6338   0.5591   1.0226

          k = 0.2500-0.3368 0.1302 (  4860 PWs)   bands (ev):

   -11.2638 -11.2482  -4.5368  -4.5310  -2.6411  -2.6372   0.6991   0.8684

          k = 0.2500-0.1443 0.0260 (  4876 PWs)   bands (ev):

   -12.8251 -12.7579  -2.5558  -2.5360  -1.3498  -0.6291  -0.2740  -0.2658

          k = 0.2500-0.1443 0.0781 (  4875 PWs)   bands (ev):

   -12.8162 -12.7670  -2.5531  -2.5387  -1.2619  -0.7357  -0.2729  -0.2669

          k = 0.2500-0.1443 0.1302 (  4887 PWs)   bands (ev):

   -12.8007 -12.7827  -2.5486  -2.5433  -1.1042  -0.9120  -0.2710  -0.2689

          k = 0.4167 0.7217 0.0260 (  4822 PWs)   bands (ev):

    -8.7011  -8.6771  -7.8289  -7.8110  -3.3864  -3.3672   2.9546   3.1987

          k = 0.4167 0.7217 0.0781 (  4835 PWs)   bands (ev):

    -8.6977  -8.6802  -7.8267  -7.8137  -3.3839  -3.3699   2.9905   3.1699

          k = 0.4167 0.7217 0.1302 (  4832 PWs)   bands (ev):

    -8.6920  -8.6856  -7.8228  -7.8180  -3.3794  -3.3743   3.0510   3.1169

          k = 0.4167-0.2406 0.0260 (  4867 PWs)   bands (ev):

   -10.3831 -10.3298  -6.7362  -6.7002  -1.4612  -1.4519   1.4005   1.9222

          k = 0.4167-0.2406 0.0781 (  4862 PWs)   bands (ev):

   -10.3760 -10.3371  -6.7314  -6.7050  -1.4599  -1.4531   1.4668   1.8484

          k = 0.4167-0.2406 0.1302 (  4847 PWs)   bands (ev):

   -10.3637 -10.3495  -6.7231  -6.7134  -1.4578  -1.4552   1.5841   1.7237

     highest occupied level (ev):     3.6743

!    total energy              =     -45.59055955 Ry
     Harris-Foulkes estimate   =     -45.59055960 Ry
     estimated scf accuracy    <       0.00000010 Ry

     The total energy is the sum of the following terms:

     one-electron contribution =     -25.35845813 Ry
     hartree contribution      =      19.22258161 Ry
     xc contribution           =     -13.76983592 Ry
     ewald contribution        =     -25.68484711 Ry

     convergence has been achieved in   5 iterations

     Writing output data file graphite.save\

     init_run     :      4.56s CPU      0.87s WALL (       1 calls)
     electrons    :     28.66s CPU      4.88s WALL (       1 calls)

     Called by init_run:
     wfcinit      :      4.48s CPU      0.78s WALL (       1 calls)
     potinit      :      0.00s CPU      0.00s WALL (       1 calls)
     hinit0       :      0.06s CPU      0.08s WALL (       1 calls)

     Called by electrons:
     c_bands      :     23.78s CPU      4.09s WALL (       5 calls)
     sum_band     :      4.53s CPU      0.73s WALL (       5 calls)
     v_of_rho     :      0.09s CPU      0.02s WALL (       6 calls)
     mix_rho      :      0.17s CPU      0.03s WALL (       5 calls)

     Called by c_bands:
     init_us_2    :      0.59s CPU      0.08s WALL (     396 calls)
     cegterg      :     22.92s CPU      3.96s WALL (     180 calls)

     Called by sum_band:

     Called by *egterg:
     h_psi        :     22.28s CPU      3.76s WALL (     679 calls)
     g_psi        :      0.25s CPU      0.02s WALL (     463 calls)
     cdiaghg      :      0.80s CPU      0.11s WALL (     643 calls)

     Called by h_psi:
     h_psi:pot    :     21.47s CPU      3.59s WALL (     679 calls)
     h_psi:calbec :      0.27s CPU      0.07s WALL (     679 calls)
     vloc_psi     :     21.02s CPU      3.49s WALL (     679 calls)
     add_vuspsi   :      0.19s CPU      0.03s WALL (     679 calls)

     General routines
     calbec       :      0.19s CPU      0.07s WALL (     679 calls)
     fft          :      0.19s CPU      0.05s WALL (      17 calls)
     ffts         :      0.00s CPU      0.00s WALL (       5 calls)
     fftw         :     14.28s CPU      2.43s WALL (   11126 calls)

     Parallel routines

     PWSCF        :     33.81s CPU      6.00s WALL


   This run was terminated on:  11:44:55   2Aug2021            

=------------------------------------------------------------------------------=
   JOB DONE.
=------------------------------------------------------------------------------=
