TACC:  Starting up job 4472410 
TACC:  Starting parallel tasks... 

     Program PWSCF v.7.0 starts on  9Jun2022 at 14: 7:43 

     This program is part of the open-source Quantum ESPRESSO suite
     for quantum simulation of materials; please cite
         "P. Giannozzi et al., J. Phys.:Condens. Matter 21 395502 (2009);
         "P. Giannozzi et al., J. Phys.:Condens. Matter 29 465901 (2017);
         "P. Giannozzi et al., J. Chem. Phys. 152 154105 (2020);
          URL http://www.quantum-espresso.org", 
     in publications or presentations arising from this work. More details at
     http://www.quantum-espresso.org/quote

     Parallel version (MPI), running on  1024 processors

     MPI processes distributed on    20 nodes
     K-points division:     npool     =    1024
     179950 MiB available memory on the printing compute node when the environment starts
 
     Reading input from relax.in

     Current dimensions of program PWSCF are:
     Max number of different atomic species (ntypx) = 10
     Max number of k-points (npk) =  40000
     Max angular momentum in pseudopotentials (lmaxx) =  4
     Message from routine divide_et_impera:
     suboptimal parallelization: some nodes have no k-points

     Subspace diagonalization in iterative solution of the eigenvalue problem:
     a serial algorithm will be used

 
     G-vector sticks info
     --------------------
     sticks:   dense  smooth     PW     G-vecs:    dense   smooth      PW
     Sum         595     595    199               117037   117037   21293
 
     Using Slab Decomposition
 


     bravais-lattice index     =            4
     lattice parameter (alat)  =       4.6415  a.u.
     unit-cell volume          =     865.9757 (a.u.)^3
     number of atoms/cell      =            2
     number of atomic types    =            1
     number of electrons       =         8.00
     number of Kohn-Sham states=            8
     kinetic-energy cutoff     =     100.0000  Ry
     charge density cutoff     =     400.0000  Ry
     scf convergence threshold =      1.0E-09
     mixing beta               =       0.7000
     number of iterations used =            8  plain     mixing
     energy convergence thresh.=      1.0E-04
     force convergence thresh. =      1.0E-03
     press convergence thresh. =      1.0E-02
     Exchange-correlation= SLA  PW   NOGX NOGC
                           (   1   4   0   0   0   0   0)
     nstep                     =           50


     celldm(1)=   4.641500  celldm(2)=   0.000000  celldm(3)=  10.000000
     celldm(4)=   0.000000  celldm(5)=   0.000000  celldm(6)=   0.000000

     crystal axes: (cart. coord. in units of alat)
               a(1) = (   1.000000   0.000000   0.000000 )  
               a(2) = (  -0.500000   0.866025   0.000000 )  
               a(3) = (   0.000000   0.000000  10.000000 )  

     reciprocal axes: (cart. coord. in units 2 pi/alat)
               b(1) = (  1.000000  0.577350  0.000000 )  
               b(2) = (  0.000000  1.154701  0.000000 )  
               b(3) = (  0.000000  0.000000  0.100000 )  


     PseudoPot. # 1 for C  read from file:
     ../pseudo/C.upf
     MD5 check sum: c9bd9c91d9c48f3c1b9c51e450525728
     Pseudo is Norm-conserving + core correction, Zval =  4.0
     Generated using ONCVPSP code by D. R. Hamann
     Using radial grid of 1234 points,  4 beta functions with: 
                l(1) =   0
                l(2) =   0
                l(3) =   1
                l(4) =   1

     atomic species   valence    mass     pseudopotential
        C              4.00    12.01100     C ( 1.00)

     24 Sym. Ops., with inversion, found


                                    s                        frac. trans.

      isym =  1     identity                                     

 cryst.   s( 1) = (     1          0          0      )
                  (     0          1          0      )
                  (     0          0          1      )

 cart.    s( 1) = (  1.0000000  0.0000000  0.0000000 )
                  (  0.0000000  1.0000000  0.0000000 )
                  (  0.0000000  0.0000000  1.0000000 )


      isym =  2     180 deg rotation - cart. axis [0,0,1]        

 cryst.   s( 2) = (    -1          0          0      )
                  (     0         -1          0      )
                  (     0          0          1      )

 cart.    s( 2) = ( -1.0000000  0.0000000  0.0000000 )
                  (  0.0000000 -1.0000000  0.0000000 )
                  (  0.0000000  0.0000000  1.0000000 )


      isym =  3     180 deg rotation - cart. axis [0,1,0]        

 cryst.   s( 3) = (    -1          0          0      )
                  (     1          1          0      )
                  (     0          0         -1      )

 cart.    s( 3) = ( -1.0000000  0.0000000  0.0000000 )
                  (  0.0000000  1.0000000  0.0000000 )
                  (  0.0000000  0.0000000 -1.0000000 )


      isym =  4     180 deg rotation - cart. axis [1,0,0]        

 cryst.   s( 4) = (     1          0          0      )
                  (    -1         -1          0      )
                  (     0          0         -1      )

 cart.    s( 4) = (  1.0000000  0.0000000  0.0000000 )
                  (  0.0000000 -1.0000000  0.0000000 )
                  (  0.0000000  0.0000000 -1.0000000 )


      isym =  5      60 deg rotation - cryst. axis [0,0,1]       

 cryst.   s( 5) = (     1          1          0      )
                  (    -1          0          0      )
                  (     0          0          1      )

 cart.    s( 5) = (  0.5000000 -0.8660254  0.0000000 )
                  (  0.8660254  0.5000000  0.0000000 )
                  (  0.0000000  0.0000000  1.0000000 )


      isym =  6      60 deg rotation - cryst. axis [0,0,-1]      

 cryst.   s( 6) = (     0         -1          0      )
                  (     1          1          0      )
                  (     0          0          1      )

 cart.    s( 6) = (  0.5000000  0.8660254  0.0000000 )
                  ( -0.8660254  0.5000000  0.0000000 )
                  (  0.0000000  0.0000000  1.0000000 )


      isym =  7     120 deg rotation - cryst. axis [0,0,1]       

 cryst.   s( 7) = (     0          1          0      )
                  (    -1         -1          0      )
                  (     0          0          1      )

 cart.    s( 7) = ( -0.5000000 -0.8660254  0.0000000 )
                  (  0.8660254 -0.5000000  0.0000000 )
                  (  0.0000000  0.0000000  1.0000000 )


      isym =  8     120 deg rotation - cryst. axis [0,0,-1]      

 cryst.   s( 8) = (    -1         -1          0      )
                  (     1          0          0      )
                  (     0          0          1      )

 cart.    s( 8) = ( -0.5000000  0.8660254  0.0000000 )
                  ( -0.8660254 -0.5000000  0.0000000 )
                  (  0.0000000  0.0000000  1.0000000 )


      isym =  9     180 deg rotation - cryst. axis [1,-1,0]      

 cryst.   s( 9) = (     0         -1          0      )
                  (    -1          0          0      )
                  (     0          0         -1      )

 cart.    s( 9) = (  0.5000000 -0.8660254  0.0000000 )
                  ( -0.8660254 -0.5000000  0.0000000 )
                  (  0.0000000  0.0000000 -1.0000000 )


      isym = 10     180 deg rotation - cryst. axis [2,1,0]       

 cryst.   s(10) = (     1          1          0      )
                  (     0         -1          0      )
                  (     0          0         -1      )

 cart.    s(10) = (  0.5000000  0.8660254  0.0000000 )
                  (  0.8660254 -0.5000000  0.0000000 )
                  (  0.0000000  0.0000000 -1.0000000 )


      isym = 11     180 deg rotation - cryst. axis [0,1,0]       

 cryst.   s(11) = (    -1         -1          0      )
                  (     0          1          0      )
                  (     0          0         -1      )

 cart.    s(11) = ( -0.5000000 -0.8660254  0.0000000 )
                  ( -0.8660254  0.5000000  0.0000000 )
                  (  0.0000000  0.0000000 -1.0000000 )


      isym = 12     180 deg rotation - cryst. axis [1,1,0]       

 cryst.   s(12) = (     0          1          0      )
                  (     1          0          0      )
                  (     0          0         -1      )

 cart.    s(12) = ( -0.5000000  0.8660254  0.0000000 )
                  (  0.8660254  0.5000000  0.0000000 )
                  (  0.0000000  0.0000000 -1.0000000 )


      isym = 13     inversion                                    

 cryst.   s(13) = (    -1          0          0      )
                  (     0         -1          0      )
                  (     0          0         -1      )

 cart.    s(13) = ( -1.0000000  0.0000000  0.0000000 )
                  (  0.0000000 -1.0000000  0.0000000 )
                  (  0.0000000  0.0000000 -1.0000000 )


      isym = 14     inv. 180 deg rotation - cart. axis [0,0,1]   

 cryst.   s(14) = (     1          0          0      )
                  (     0          1          0      )
                  (     0          0         -1      )

 cart.    s(14) = (  1.0000000  0.0000000  0.0000000 )
                  (  0.0000000  1.0000000  0.0000000 )
                  (  0.0000000  0.0000000 -1.0000000 )


      isym = 15     inv. 180 deg rotation - cart. axis [0,1,0]   

 cryst.   s(15) = (     1          0          0      )
                  (    -1         -1          0      )
                  (     0          0          1      )

 cart.    s(15) = (  1.0000000  0.0000000  0.0000000 )
                  (  0.0000000 -1.0000000  0.0000000 )
                  (  0.0000000  0.0000000  1.0000000 )


      isym = 16     inv. 180 deg rotation - cart. axis [1,0,0]   

 cryst.   s(16) = (    -1          0          0      )
                  (     1          1          0      )
                  (     0          0          1      )

 cart.    s(16) = ( -1.0000000  0.0000000  0.0000000 )
                  (  0.0000000  1.0000000  0.0000000 )
                  (  0.0000000  0.0000000  1.0000000 )


      isym = 17     inv.  60 deg rotation - cryst. axis [0,0,1]  

 cryst.   s(17) = (    -1         -1          0      )
                  (     1          0          0      )
                  (     0          0         -1      )

 cart.    s(17) = ( -0.5000000  0.8660254  0.0000000 )
                  ( -0.8660254 -0.5000000  0.0000000 )
                  (  0.0000000  0.0000000 -1.0000000 )


      isym = 18     inv.  60 deg rotation - cryst. axis [0,0,-1] 

 cryst.   s(18) = (     0          1          0      )
                  (    -1         -1          0      )
                  (     0          0         -1      )

 cart.    s(18) = ( -0.5000000 -0.8660254  0.0000000 )
                  (  0.8660254 -0.5000000  0.0000000 )
                  (  0.0000000  0.0000000 -1.0000000 )


      isym = 19     inv. 120 deg rotation - cryst. axis [0,0,1]  

 cryst.   s(19) = (     0         -1          0      )
                  (     1          1          0      )
                  (     0          0         -1      )

 cart.    s(19) = (  0.5000000  0.8660254  0.0000000 )
                  ( -0.8660254  0.5000000  0.0000000 )
                  (  0.0000000  0.0000000 -1.0000000 )


      isym = 20     inv. 120 deg rotation - cryst. axis [0,0,-1] 

 cryst.   s(20) = (     1          1          0      )
                  (    -1          0          0      )
                  (     0          0         -1      )

 cart.    s(20) = (  0.5000000 -0.8660254  0.0000000 )
                  (  0.8660254  0.5000000  0.0000000 )
                  (  0.0000000  0.0000000 -1.0000000 )


      isym = 21     inv. 180 deg rotation - cryst. axis [1,-1,0] 

 cryst.   s(21) = (     0          1          0      )
                  (     1          0          0      )
                  (     0          0          1      )

 cart.    s(21) = ( -0.5000000  0.8660254  0.0000000 )
                  (  0.8660254  0.5000000  0.0000000 )
                  (  0.0000000  0.0000000  1.0000000 )


      isym = 22     inv. 180 deg rotation - cryst. axis [2,1,0]  

 cryst.   s(22) = (    -1         -1          0      )
                  (     0          1          0      )
                  (     0          0          1      )

 cart.    s(22) = ( -0.5000000 -0.8660254  0.0000000 )
                  ( -0.8660254  0.5000000  0.0000000 )
                  (  0.0000000  0.0000000  1.0000000 )


      isym = 23     inv. 180 deg rotation - cryst. axis [0,1,0]  

 cryst.   s(23) = (     1          1          0      )
                  (     0         -1          0      )
                  (     0          0          1      )

 cart.    s(23) = (  0.5000000  0.8660254  0.0000000 )
                  (  0.8660254 -0.5000000  0.0000000 )
                  (  0.0000000  0.0000000  1.0000000 )


      isym = 24     inv. 180 deg rotation - cryst. axis [1,1,0]  

 cryst.   s(24) = (     0         -1          0      )
                  (    -1          0          0      )
                  (     0          0          1      )

 cart.    s(24) = (  0.5000000 -0.8660254  0.0000000 )
                  ( -0.8660254 -0.5000000  0.0000000 )
                  (  0.0000000  0.0000000  1.0000000 )


     point group D_6h(6/mmm)
     there are 12 classes
     the character table:

       E     2C6   2C3   C2    3C2'  3C2'' i     2S3   2S6   s_h   3s_d  3s_v 
A_1g   1.00  1.00  1.00  1.00  1.00  1.00  1.00  1.00  1.00  1.00  1.00  1.00
A_2g   1.00  1.00  1.00  1.00 -1.00 -1.00  1.00  1.00  1.00  1.00 -1.00 -1.00
B_1g   1.00 -1.00  1.00 -1.00  1.00 -1.00  1.00 -1.00  1.00 -1.00  1.00 -1.00
B_2g   1.00 -1.00  1.00 -1.00 -1.00  1.00  1.00 -1.00  1.00 -1.00 -1.00  1.00
E_1g   2.00  1.00 -1.00 -2.00  0.00  0.00  2.00  1.00 -1.00 -2.00  0.00  0.00
E_2g   2.00 -1.00 -1.00  2.00  0.00  0.00  2.00 -1.00 -1.00  2.00  0.00  0.00
A_1u   1.00  1.00  1.00  1.00  1.00  1.00 -1.00 -1.00 -1.00 -1.00 -1.00 -1.00
A_2u   1.00  1.00  1.00  1.00 -1.00 -1.00 -1.00 -1.00 -1.00 -1.00  1.00  1.00
B_1u   1.00 -1.00  1.00 -1.00  1.00 -1.00 -1.00  1.00 -1.00  1.00 -1.00  1.00
B_2u   1.00 -1.00  1.00 -1.00 -1.00  1.00 -1.00  1.00 -1.00  1.00  1.00 -1.00
E_1u   2.00  1.00 -1.00 -2.00  0.00  0.00 -2.00 -1.00  1.00  2.00  0.00  0.00
E_2u   2.00 -1.00 -1.00  2.00  0.00  0.00 -2.00  1.00  1.00 -2.00  0.00  0.00

     the symmetry operations in each class and the name of the first element:

     E        1
          identity                                               
     2C6      5    6
           60 deg rotation - cryst. axis [0,0,1]                 
     2C3      7    8
          120 deg rotation - cryst. axis [0,0,1]                 
     C2       2
          180 deg rotation - cart. axis [0,0,1]                  
     3C2'     4   12   11
          180 deg rotation - cart. axis [1,0,0]                  
     3C2''    3    9   10
          180 deg rotation - cart. axis [0,1,0]                  
     i       13
          inversion                                              
     2S3     17   18
          inv.  60 deg rotation - cryst. axis [0,0,1]            
     2S6     19   20
          inv. 120 deg rotation - cryst. axis [0,0,1]            
     s_h     14
          inv. 180 deg rotation - cart. axis [0,0,1]             
     3s_d    16   24   23
          inv. 180 deg rotation - cart. axis [1,0,0]             
     3s_v    15   21   22
          inv. 180 deg rotation - cart. axis [0,1,0]             

   Cartesian axes

     site n.     atom                  positions (alat units)
         1           C   tau(   1) = (   0.5000000   0.2886751   0.0000000  )
         2           C   tau(   2) = (   0.0000000   0.5773503   0.0000000  )

   Crystallographic axes

     site n.     atom                  positions (cryst. coord.)
         1           C   tau(   1) = (  0.6666667  0.3333333  0.0000000  )
         2           C   tau(   2) = (  0.3333333  0.6666667  0.0000000  )

     number of k points=   272  Methfessel-Paxton smearing, width (Ry)=  0.0050
                       cart. coord. in units 2pi/alat
        k(    1) = (   0.0156250   0.0270633   0.0000000), wk =   0.0039062
        k(    2) = (   0.0156250   0.0631477   0.0000000), wk =   0.0078125
        k(    3) = (   0.0156250   0.0992321   0.0000000), wk =   0.0078125
        k(    4) = (   0.0156250   0.1353165   0.0000000), wk =   0.0078125
        k(    5) = (   0.0156250   0.1714009   0.0000000), wk =   0.0078125
        k(    6) = (   0.0156250   0.2074853   0.0000000), wk =   0.0078125
        k(    7) = (   0.0156250   0.2435696   0.0000000), wk =   0.0078125
        k(    8) = (   0.0156250   0.2796540   0.0000000), wk =   0.0078125
        k(    9) = (   0.0156250   0.3157384   0.0000000), wk =   0.0078125
        k(   10) = (   0.0156250   0.3518228   0.0000000), wk =   0.0078125
        k(   11) = (   0.0156250   0.3879072   0.0000000), wk =   0.0078125
        k(   12) = (   0.0156250   0.4239916   0.0000000), wk =   0.0078125
        k(   13) = (   0.0156250   0.4600760   0.0000000), wk =   0.0078125
        k(   14) = (   0.0156250   0.4961604   0.0000000), wk =   0.0078125
        k(   15) = (   0.0156250   0.5322448   0.0000000), wk =   0.0078125
        k(   16) = (   0.0156250   0.5683292   0.0000000), wk =   0.0078125
        k(   17) = (   0.0156250  -0.5502870   0.0000000), wk =   0.0078125
        k(   18) = (   0.0156250  -0.5142026   0.0000000), wk =   0.0078125
        k(   19) = (   0.0156250  -0.4781182   0.0000000), wk =   0.0078125
        k(   20) = (   0.0156250  -0.4420338   0.0000000), wk =   0.0078125
        k(   21) = (   0.0156250  -0.4059494   0.0000000), wk =   0.0078125
        k(   22) = (   0.0156250  -0.3698650   0.0000000), wk =   0.0078125
        k(   23) = (   0.0156250  -0.3337806   0.0000000), wk =   0.0078125
        k(   24) = (   0.0156250  -0.2976962   0.0000000), wk =   0.0078125
        k(   25) = (   0.0156250  -0.2616118   0.0000000), wk =   0.0078125
        k(   26) = (   0.0156250  -0.2255274   0.0000000), wk =   0.0078125
        k(   27) = (   0.0156250  -0.1894431   0.0000000), wk =   0.0078125
        k(   28) = (   0.0156250  -0.1533587   0.0000000), wk =   0.0078125
        k(   29) = (   0.0156250  -0.1172743   0.0000000), wk =   0.0078125
        k(   30) = (   0.0156250  -0.0811899   0.0000000), wk =   0.0078125
        k(   31) = (   0.0156250  -0.0451055   0.0000000), wk =   0.0078125
        k(   32) = (   0.0156250  -0.0090211   0.0000000), wk =   0.0039062
        k(   33) = (   0.0468750   0.0811899   0.0000000), wk =   0.0039062
        k(   34) = (   0.0468750   0.1172743   0.0000000), wk =   0.0078125
        k(   35) = (   0.0468750   0.1533587   0.0000000), wk =   0.0078125
        k(   36) = (   0.0468750   0.1894431   0.0000000), wk =   0.0078125
        k(   37) = (   0.0468750   0.2255274   0.0000000), wk =   0.0078125
        k(   38) = (   0.0468750   0.2616118   0.0000000), wk =   0.0078125
        k(   39) = (   0.0468750   0.2976962   0.0000000), wk =   0.0078125
        k(   40) = (   0.0468750   0.3337806   0.0000000), wk =   0.0078125
        k(   41) = (   0.0468750   0.3698650   0.0000000), wk =   0.0078125
        k(   42) = (   0.0468750   0.4059494   0.0000000), wk =   0.0078125
        k(   43) = (   0.0468750   0.4420338   0.0000000), wk =   0.0078125
        k(   44) = (   0.0468750   0.4781182   0.0000000), wk =   0.0078125
        k(   45) = (   0.0468750   0.5142026   0.0000000), wk =   0.0078125
        k(   46) = (   0.0468750   0.5502870   0.0000000), wk =   0.0078125
        k(   47) = (   0.0468750   0.5863714   0.0000000), wk =   0.0078125
        k(   48) = (   0.0468750  -0.5322448   0.0000000), wk =   0.0078125
        k(   49) = (   0.0468750  -0.4961604   0.0000000), wk =   0.0078125
        k(   50) = (   0.0468750  -0.4600760   0.0000000), wk =   0.0078125
        k(   51) = (   0.0468750  -0.4239916   0.0000000), wk =   0.0078125
        k(   52) = (   0.0468750  -0.3879072   0.0000000), wk =   0.0078125
        k(   53) = (   0.0468750  -0.3518228   0.0000000), wk =   0.0078125
        k(   54) = (   0.0468750  -0.3157384   0.0000000), wk =   0.0078125
        k(   55) = (   0.0468750  -0.2796540   0.0000000), wk =   0.0078125
        k(   56) = (   0.0468750  -0.2435696   0.0000000), wk =   0.0078125
        k(   57) = (   0.0468750  -0.2074853   0.0000000), wk =   0.0078125
        k(   58) = (   0.0468750  -0.1714009   0.0000000), wk =   0.0078125
        k(   59) = (   0.0468750  -0.1353165   0.0000000), wk =   0.0078125
        k(   60) = (   0.0468750  -0.0992321   0.0000000), wk =   0.0078125
        k(   61) = (   0.0468750  -0.0631477   0.0000000), wk =   0.0078125
        k(   62) = (   0.0468750  -0.0270633   0.0000000), wk =   0.0039062
        k(   63) = (   0.0781250   0.1353165   0.0000000), wk =   0.0039062
        k(   64) = (   0.0781250   0.1714009   0.0000000), wk =   0.0078125
        k(   65) = (   0.0781250   0.2074853   0.0000000), wk =   0.0078125
        k(   66) = (   0.0781250   0.2435696   0.0000000), wk =   0.0078125
        k(   67) = (   0.0781250   0.2796540   0.0000000), wk =   0.0078125
        k(   68) = (   0.0781250   0.3157384   0.0000000), wk =   0.0078125
        k(   69) = (   0.0781250   0.3518228   0.0000000), wk =   0.0078125
        k(   70) = (   0.0781250   0.3879072   0.0000000), wk =   0.0078125
        k(   71) = (   0.0781250   0.4239916   0.0000000), wk =   0.0078125
        k(   72) = (   0.0781250   0.4600760   0.0000000), wk =   0.0078125
        k(   73) = (   0.0781250   0.4961604   0.0000000), wk =   0.0078125
        k(   74) = (   0.0781250   0.5322448   0.0000000), wk =   0.0078125
        k(   75) = (   0.0781250   0.5683292   0.0000000), wk =   0.0078125
        k(   76) = (   0.0781250   0.6044136   0.0000000), wk =   0.0078125
        k(   77) = (   0.0781250  -0.5142026   0.0000000), wk =   0.0078125
        k(   78) = (   0.0781250  -0.4781182   0.0000000), wk =   0.0078125
        k(   79) = (   0.0781250  -0.4420338   0.0000000), wk =   0.0078125
        k(   80) = (   0.0781250  -0.4059494   0.0000000), wk =   0.0078125
        k(   81) = (   0.0781250  -0.3698650   0.0000000), wk =   0.0078125
        k(   82) = (   0.0781250  -0.3337806   0.0000000), wk =   0.0078125
        k(   83) = (   0.0781250  -0.2976962   0.0000000), wk =   0.0078125
        k(   84) = (   0.0781250  -0.2616118   0.0000000), wk =   0.0078125
        k(   85) = (   0.0781250  -0.2255274   0.0000000), wk =   0.0078125
        k(   86) = (   0.0781250  -0.1894431   0.0000000), wk =   0.0078125
        k(   87) = (   0.0781250  -0.1533587   0.0000000), wk =   0.0078125
        k(   88) = (   0.0781250  -0.1172743   0.0000000), wk =   0.0078125
        k(   89) = (   0.0781250  -0.0811899   0.0000000), wk =   0.0078125
        k(   90) = (   0.0781250  -0.0451055   0.0000000), wk =   0.0039062
        k(   91) = (   0.1093750   0.1894431   0.0000000), wk =   0.0039062
        k(   92) = (   0.1093750   0.2255274   0.0000000), wk =   0.0078125
        k(   93) = (   0.1093750   0.2616118   0.0000000), wk =   0.0078125
        k(   94) = (   0.1093750   0.2976962   0.0000000), wk =   0.0078125
        k(   95) = (   0.1093750   0.3337806   0.0000000), wk =   0.0078125
        k(   96) = (   0.1093750   0.3698650   0.0000000), wk =   0.0078125
        k(   97) = (   0.1093750   0.4059494   0.0000000), wk =   0.0078125
        k(   98) = (   0.1093750   0.4420338   0.0000000), wk =   0.0078125
        k(   99) = (   0.1093750   0.4781182   0.0000000), wk =   0.0078125
        k(  100) = (   0.1093750   0.5142026   0.0000000), wk =   0.0078125
        k(  101) = (   0.1093750   0.5502870   0.0000000), wk =   0.0078125
        k(  102) = (   0.1093750   0.5863714   0.0000000), wk =   0.0078125
        k(  103) = (   0.1093750   0.6224558   0.0000000), wk =   0.0078125
        k(  104) = (   0.1093750  -0.4961604   0.0000000), wk =   0.0078125
        k(  105) = (   0.1093750  -0.4600760   0.0000000), wk =   0.0078125
        k(  106) = (   0.1093750  -0.4239916   0.0000000), wk =   0.0078125
        k(  107) = (   0.1093750  -0.3879072   0.0000000), wk =   0.0078125
        k(  108) = (   0.1093750  -0.3518228   0.0000000), wk =   0.0078125
        k(  109) = (   0.1093750  -0.3157384   0.0000000), wk =   0.0078125
        k(  110) = (   0.1093750  -0.2796540   0.0000000), wk =   0.0078125
        k(  111) = (   0.1093750  -0.2435696   0.0000000), wk =   0.0078125
        k(  112) = (   0.1093750  -0.2074853   0.0000000), wk =   0.0078125
        k(  113) = (   0.1093750  -0.1714009   0.0000000), wk =   0.0078125
        k(  114) = (   0.1093750  -0.1353165   0.0000000), wk =   0.0078125
        k(  115) = (   0.1093750  -0.0992321   0.0000000), wk =   0.0078125
        k(  116) = (   0.1093750  -0.0631477   0.0000000), wk =   0.0039062
        k(  117) = (   0.1406250   0.2435696   0.0000000), wk =   0.0039062
        k(  118) = (   0.1406250   0.2796540   0.0000000), wk =   0.0078125
        k(  119) = (   0.1406250   0.3157384   0.0000000), wk =   0.0078125
        k(  120) = (   0.1406250   0.3518228   0.0000000), wk =   0.0078125
        k(  121) = (   0.1406250   0.3879072   0.0000000), wk =   0.0078125
        k(  122) = (   0.1406250   0.4239916   0.0000000), wk =   0.0078125
        k(  123) = (   0.1406250   0.4600760   0.0000000), wk =   0.0078125
        k(  124) = (   0.1406250   0.4961604   0.0000000), wk =   0.0078125
        k(  125) = (   0.1406250   0.5322448   0.0000000), wk =   0.0078125
        k(  126) = (   0.1406250   0.5683292   0.0000000), wk =   0.0078125
        k(  127) = (   0.1406250   0.6044136   0.0000000), wk =   0.0078125
        k(  128) = (   0.1406250   0.6404980   0.0000000), wk =   0.0078125
        k(  129) = (   0.1406250  -0.4781182   0.0000000), wk =   0.0078125
        k(  130) = (   0.1406250  -0.4420338   0.0000000), wk =   0.0078125
        k(  131) = (   0.1406250  -0.4059494   0.0000000), wk =   0.0078125
        k(  132) = (   0.1406250  -0.3698650   0.0000000), wk =   0.0078125
        k(  133) = (   0.1406250  -0.3337806   0.0000000), wk =   0.0078125
        k(  134) = (   0.1406250  -0.2976962   0.0000000), wk =   0.0078125
        k(  135) = (   0.1406250  -0.2616118   0.0000000), wk =   0.0078125
        k(  136) = (   0.1406250  -0.2255274   0.0000000), wk =   0.0078125
        k(  137) = (   0.1406250  -0.1894431   0.0000000), wk =   0.0078125
        k(  138) = (   0.1406250  -0.1533587   0.0000000), wk =   0.0078125
        k(  139) = (   0.1406250  -0.1172743   0.0000000), wk =   0.0078125
        k(  140) = (   0.1406250  -0.0811899   0.0000000), wk =   0.0039062
        k(  141) = (   0.1718750   0.2976962   0.0000000), wk =   0.0039062
        k(  142) = (   0.1718750   0.3337806   0.0000000), wk =   0.0078125
        k(  143) = (   0.1718750   0.3698650   0.0000000), wk =   0.0078125
        k(  144) = (   0.1718750   0.4059494   0.0000000), wk =   0.0078125
        k(  145) = (   0.1718750   0.4420338   0.0000000), wk =   0.0078125
        k(  146) = (   0.1718750   0.4781182   0.0000000), wk =   0.0078125
        k(  147) = (   0.1718750   0.5142026   0.0000000), wk =   0.0078125
        k(  148) = (   0.1718750   0.5502870   0.0000000), wk =   0.0078125
        k(  149) = (   0.1718750   0.5863714   0.0000000), wk =   0.0078125
        k(  150) = (   0.1718750   0.6224558   0.0000000), wk =   0.0078125
        k(  151) = (   0.1718750   0.6585402   0.0000000), wk =   0.0078125
        k(  152) = (   0.1718750  -0.4600760   0.0000000), wk =   0.0078125
        k(  153) = (   0.1718750  -0.4239916   0.0000000), wk =   0.0078125
        k(  154) = (   0.1718750  -0.3879072   0.0000000), wk =   0.0078125
        k(  155) = (   0.1718750  -0.3518228   0.0000000), wk =   0.0078125
        k(  156) = (   0.1718750  -0.3157384   0.0000000), wk =   0.0078125
        k(  157) = (   0.1718750  -0.2796540   0.0000000), wk =   0.0078125
        k(  158) = (   0.1718750  -0.2435696   0.0000000), wk =   0.0078125
        k(  159) = (   0.1718750  -0.2074853   0.0000000), wk =   0.0078125
        k(  160) = (   0.1718750  -0.1714009   0.0000000), wk =   0.0078125
        k(  161) = (   0.1718750  -0.1353165   0.0000000), wk =   0.0078125
        k(  162) = (   0.1718750  -0.0992321   0.0000000), wk =   0.0039062
        k(  163) = (   0.2031250   0.3518228   0.0000000), wk =   0.0039062
        k(  164) = (   0.2031250   0.3879072   0.0000000), wk =   0.0078125
        k(  165) = (   0.2031250   0.4239916   0.0000000), wk =   0.0078125
        k(  166) = (   0.2031250   0.4600760   0.0000000), wk =   0.0078125
        k(  167) = (   0.2031250   0.4961604   0.0000000), wk =   0.0078125
        k(  168) = (   0.2031250   0.5322448   0.0000000), wk =   0.0078125
        k(  169) = (   0.2031250   0.5683292   0.0000000), wk =   0.0078125
        k(  170) = (   0.2031250   0.6044136   0.0000000), wk =   0.0078125
        k(  171) = (   0.2031250   0.6404980   0.0000000), wk =   0.0078125
        k(  172) = (   0.2031250   0.6765823   0.0000000), wk =   0.0078125
        k(  173) = (   0.2031250  -0.4420338   0.0000000), wk =   0.0078125
        k(  174) = (   0.2031250  -0.4059494   0.0000000), wk =   0.0078125
        k(  175) = (   0.2031250  -0.3698650   0.0000000), wk =   0.0078125
        k(  176) = (   0.2031250  -0.3337806   0.0000000), wk =   0.0078125
        k(  177) = (   0.2031250  -0.2976962   0.0000000), wk =   0.0078125
        k(  178) = (   0.2031250  -0.2616118   0.0000000), wk =   0.0078125
        k(  179) = (   0.2031250  -0.2255274   0.0000000), wk =   0.0078125
        k(  180) = (   0.2031250  -0.1894431   0.0000000), wk =   0.0078125
        k(  181) = (   0.2031250  -0.1533587   0.0000000), wk =   0.0078125
        k(  182) = (   0.2031250  -0.1172743   0.0000000), wk =   0.0039062
        k(  183) = (   0.2343750   0.4059494   0.0000000), wk =   0.0039062
        k(  184) = (   0.2343750   0.4420338   0.0000000), wk =   0.0078125
        k(  185) = (   0.2343750   0.4781182   0.0000000), wk =   0.0078125
        k(  186) = (   0.2343750   0.5142026   0.0000000), wk =   0.0078125
        k(  187) = (   0.2343750   0.5502870   0.0000000), wk =   0.0078125
        k(  188) = (   0.2343750   0.5863714   0.0000000), wk =   0.0078125
        k(  189) = (   0.2343750   0.6224558   0.0000000), wk =   0.0078125
        k(  190) = (   0.2343750   0.6585402   0.0000000), wk =   0.0078125
        k(  191) = (   0.2343750   0.6946245   0.0000000), wk =   0.0078125
        k(  192) = (   0.2343750  -0.4239916   0.0000000), wk =   0.0078125
        k(  193) = (   0.2343750  -0.3879072   0.0000000), wk =   0.0078125
        k(  194) = (   0.2343750  -0.3518228   0.0000000), wk =   0.0078125
        k(  195) = (   0.2343750  -0.3157384   0.0000000), wk =   0.0078125
        k(  196) = (   0.2343750  -0.2796540   0.0000000), wk =   0.0078125
        k(  197) = (   0.2343750  -0.2435696   0.0000000), wk =   0.0078125
        k(  198) = (   0.2343750  -0.2074853   0.0000000), wk =   0.0078125
        k(  199) = (   0.2343750  -0.1714009   0.0000000), wk =   0.0078125
        k(  200) = (   0.2343750  -0.1353165   0.0000000), wk =   0.0039062
        k(  201) = (   0.2656250   0.4600760   0.0000000), wk =   0.0039062
        k(  202) = (   0.2656250   0.4961604   0.0000000), wk =   0.0078125
        k(  203) = (   0.2656250   0.5322448   0.0000000), wk =   0.0078125
        k(  204) = (   0.2656250   0.5683292   0.0000000), wk =   0.0078125
        k(  205) = (   0.2656250   0.6044136   0.0000000), wk =   0.0078125
        k(  206) = (   0.2656250   0.6404980   0.0000000), wk =   0.0078125
        k(  207) = (   0.2656250   0.6765823   0.0000000), wk =   0.0078125
        k(  208) = (   0.2656250   0.7126667   0.0000000), wk =   0.0078125
        k(  209) = (   0.2656250  -0.4059494   0.0000000), wk =   0.0078125
        k(  210) = (   0.2656250  -0.3698650   0.0000000), wk =   0.0078125
        k(  211) = (   0.2656250  -0.3337806   0.0000000), wk =   0.0078125
        k(  212) = (   0.2656250  -0.2976962   0.0000000), wk =   0.0078125
        k(  213) = (   0.2656250  -0.2616118   0.0000000), wk =   0.0078125
        k(  214) = (   0.2656250  -0.2255274   0.0000000), wk =   0.0078125
        k(  215) = (   0.2656250  -0.1894431   0.0000000), wk =   0.0078125
        k(  216) = (   0.2656250  -0.1533587   0.0000000), wk =   0.0039062
        k(  217) = (   0.2968750   0.5142026   0.0000000), wk =   0.0039062
        k(  218) = (   0.2968750   0.5502870   0.0000000), wk =   0.0078125
        k(  219) = (   0.2968750   0.5863714   0.0000000), wk =   0.0078125
        k(  220) = (   0.2968750   0.6224558   0.0000000), wk =   0.0078125
        k(  221) = (   0.2968750   0.6585402   0.0000000), wk =   0.0078125
        k(  222) = (   0.2968750   0.6946245   0.0000000), wk =   0.0078125
        k(  223) = (   0.2968750   0.7307089   0.0000000), wk =   0.0078125
        k(  224) = (   0.2968750  -0.3879072   0.0000000), wk =   0.0078125
        k(  225) = (   0.2968750  -0.3518228   0.0000000), wk =   0.0078125
        k(  226) = (   0.2968750  -0.3157384   0.0000000), wk =   0.0078125
        k(  227) = (   0.2968750  -0.2796540   0.0000000), wk =   0.0078125
        k(  228) = (   0.2968750  -0.2435696   0.0000000), wk =   0.0078125
        k(  229) = (   0.2968750  -0.2074853   0.0000000), wk =   0.0078125
        k(  230) = (   0.2968750  -0.1714009   0.0000000), wk =   0.0039062
        k(  231) = (   0.3281250   0.5683292   0.0000000), wk =   0.0039062
        k(  232) = (   0.3281250   0.6044136   0.0000000), wk =   0.0078125
        k(  233) = (   0.3281250   0.6404980   0.0000000), wk =   0.0078125
        k(  234) = (   0.3281250   0.6765823   0.0000000), wk =   0.0078125
        k(  235) = (   0.3281250   0.7126667   0.0000000), wk =   0.0078125
        k(  236) = (   0.3281250   0.7487511   0.0000000), wk =   0.0078125
        k(  237) = (   0.3281250  -0.3698650   0.0000000), wk =   0.0078125
        k(  238) = (   0.3281250  -0.3337806   0.0000000), wk =   0.0078125
        k(  239) = (   0.3281250  -0.2976962   0.0000000), wk =   0.0078125
        k(  240) = (   0.3281250  -0.2616118   0.0000000), wk =   0.0078125
        k(  241) = (   0.3281250  -0.2255274   0.0000000), wk =   0.0078125
        k(  242) = (   0.3281250  -0.1894431   0.0000000), wk =   0.0039062
        k(  243) = (   0.3593750   0.6224558   0.0000000), wk =   0.0039062
        k(  244) = (   0.3593750   0.6585402   0.0000000), wk =   0.0078125
        k(  245) = (   0.3593750   0.6946245   0.0000000), wk =   0.0078125
        k(  246) = (   0.3593750   0.7307089   0.0000000), wk =   0.0078125
        k(  247) = (   0.3593750   0.7667933   0.0000000), wk =   0.0078125
        k(  248) = (   0.3593750  -0.3518228   0.0000000), wk =   0.0078125
        k(  249) = (   0.3593750  -0.3157384   0.0000000), wk =   0.0078125
        k(  250) = (   0.3593750  -0.2796540   0.0000000), wk =   0.0078125
        k(  251) = (   0.3593750  -0.2435696   0.0000000), wk =   0.0078125
        k(  252) = (   0.3593750  -0.2074853   0.0000000), wk =   0.0039062
        k(  253) = (   0.3906250   0.6765823   0.0000000), wk =   0.0039062
        k(  254) = (   0.3906250   0.7126667   0.0000000), wk =   0.0078125
        k(  255) = (   0.3906250   0.7487511   0.0000000), wk =   0.0078125
        k(  256) = (   0.3906250   0.7848355   0.0000000), wk =   0.0078125
        k(  257) = (   0.3906250  -0.3337806   0.0000000), wk =   0.0078125
        k(  258) = (   0.3906250  -0.2976962   0.0000000), wk =   0.0078125
        k(  259) = (   0.3906250  -0.2616118   0.0000000), wk =   0.0078125
        k(  260) = (   0.3906250  -0.2255274   0.0000000), wk =   0.0039062
        k(  261) = (   0.4218750   0.7307089   0.0000000), wk =   0.0039062
        k(  262) = (   0.4218750   0.7667933   0.0000000), wk =   0.0078125
        k(  263) = (   0.4218750   0.8028777   0.0000000), wk =   0.0078125
        k(  264) = (   0.4218750  -0.3157384   0.0000000), wk =   0.0078125
        k(  265) = (   0.4218750  -0.2796540   0.0000000), wk =   0.0078125
        k(  266) = (   0.4218750  -0.2435696   0.0000000), wk =   0.0039062
        k(  267) = (   0.4531250   0.7848355   0.0000000), wk =   0.0039062
        k(  268) = (   0.4531250   0.8209199   0.0000000), wk =   0.0078125
        k(  269) = (   0.4531250  -0.2976962   0.0000000), wk =   0.0078125
        k(  270) = (   0.4531250  -0.2616118   0.0000000), wk =   0.0039062
        k(  271) = (   0.4843750   0.8389621   0.0000000), wk =   0.0039062
        k(  272) = (   0.4843750  -0.2796540   0.0000000), wk =   0.0039062

                       cryst. coord.
        k(    1) = (   0.0156250   0.0156250   0.0000000), wk =   0.0039062
        k(    2) = (   0.0156250   0.0468750   0.0000000), wk =   0.0078125
        k(    3) = (   0.0156250   0.0781250   0.0000000), wk =   0.0078125
        k(    4) = (   0.0156250   0.1093750   0.0000000), wk =   0.0078125
        k(    5) = (   0.0156250   0.1406250   0.0000000), wk =   0.0078125
        k(    6) = (   0.0156250   0.1718750   0.0000000), wk =   0.0078125
        k(    7) = (   0.0156250   0.2031250   0.0000000), wk =   0.0078125
        k(    8) = (   0.0156250   0.2343750   0.0000000), wk =   0.0078125
        k(    9) = (   0.0156250   0.2656250   0.0000000), wk =   0.0078125
        k(   10) = (   0.0156250   0.2968750   0.0000000), wk =   0.0078125
        k(   11) = (   0.0156250   0.3281250   0.0000000), wk =   0.0078125
        k(   12) = (   0.0156250   0.3593750   0.0000000), wk =   0.0078125
        k(   13) = (   0.0156250   0.3906250   0.0000000), wk =   0.0078125
        k(   14) = (   0.0156250   0.4218750   0.0000000), wk =   0.0078125
        k(   15) = (   0.0156250   0.4531250   0.0000000), wk =   0.0078125
        k(   16) = (   0.0156250   0.4843750   0.0000000), wk =   0.0078125
        k(   17) = (   0.0156250  -0.4843750   0.0000000), wk =   0.0078125
        k(   18) = (   0.0156250  -0.4531250   0.0000000), wk =   0.0078125
        k(   19) = (   0.0156250  -0.4218750   0.0000000), wk =   0.0078125
        k(   20) = (   0.0156250  -0.3906250   0.0000000), wk =   0.0078125
        k(   21) = (   0.0156250  -0.3593750   0.0000000), wk =   0.0078125
        k(   22) = (   0.0156250  -0.3281250   0.0000000), wk =   0.0078125
        k(   23) = (   0.0156250  -0.2968750   0.0000000), wk =   0.0078125
        k(   24) = (   0.0156250  -0.2656250   0.0000000), wk =   0.0078125
        k(   25) = (   0.0156250  -0.2343750   0.0000000), wk =   0.0078125
        k(   26) = (   0.0156250  -0.2031250   0.0000000), wk =   0.0078125
        k(   27) = (   0.0156250  -0.1718750   0.0000000), wk =   0.0078125
        k(   28) = (   0.0156250  -0.1406250   0.0000000), wk =   0.0078125
        k(   29) = (   0.0156250  -0.1093750   0.0000000), wk =   0.0078125
        k(   30) = (   0.0156250  -0.0781250   0.0000000), wk =   0.0078125
        k(   31) = (   0.0156250  -0.0468750   0.0000000), wk =   0.0078125
        k(   32) = (   0.0156250  -0.0156250   0.0000000), wk =   0.0039062
        k(   33) = (   0.0468750   0.0468750   0.0000000), wk =   0.0039062
        k(   34) = (   0.0468750   0.0781250   0.0000000), wk =   0.0078125
        k(   35) = (   0.0468750   0.1093750   0.0000000), wk =   0.0078125
        k(   36) = (   0.0468750   0.1406250   0.0000000), wk =   0.0078125
        k(   37) = (   0.0468750   0.1718750   0.0000000), wk =   0.0078125
        k(   38) = (   0.0468750   0.2031250   0.0000000), wk =   0.0078125
        k(   39) = (   0.0468750   0.2343750   0.0000000), wk =   0.0078125
        k(   40) = (   0.0468750   0.2656250   0.0000000), wk =   0.0078125
        k(   41) = (   0.0468750   0.2968750   0.0000000), wk =   0.0078125
        k(   42) = (   0.0468750   0.3281250   0.0000000), wk =   0.0078125
        k(   43) = (   0.0468750   0.3593750   0.0000000), wk =   0.0078125
        k(   44) = (   0.0468750   0.3906250   0.0000000), wk =   0.0078125
        k(   45) = (   0.0468750   0.4218750   0.0000000), wk =   0.0078125
        k(   46) = (   0.0468750   0.4531250   0.0000000), wk =   0.0078125
        k(   47) = (   0.0468750   0.4843750   0.0000000), wk =   0.0078125
        k(   48) = (   0.0468750  -0.4843750   0.0000000), wk =   0.0078125
        k(   49) = (   0.0468750  -0.4531250   0.0000000), wk =   0.0078125
        k(   50) = (   0.0468750  -0.4218750   0.0000000), wk =   0.0078125
        k(   51) = (   0.0468750  -0.3906250   0.0000000), wk =   0.0078125
        k(   52) = (   0.0468750  -0.3593750   0.0000000), wk =   0.0078125
        k(   53) = (   0.0468750  -0.3281250   0.0000000), wk =   0.0078125
        k(   54) = (   0.0468750  -0.2968750   0.0000000), wk =   0.0078125
        k(   55) = (   0.0468750  -0.2656250   0.0000000), wk =   0.0078125
        k(   56) = (   0.0468750  -0.2343750   0.0000000), wk =   0.0078125
        k(   57) = (   0.0468750  -0.2031250   0.0000000), wk =   0.0078125
        k(   58) = (   0.0468750  -0.1718750   0.0000000), wk =   0.0078125
        k(   59) = (   0.0468750  -0.1406250   0.0000000), wk =   0.0078125
        k(   60) = (   0.0468750  -0.1093750   0.0000000), wk =   0.0078125
        k(   61) = (   0.0468750  -0.0781250   0.0000000), wk =   0.0078125
        k(   62) = (   0.0468750  -0.0468750   0.0000000), wk =   0.0039062
        k(   63) = (   0.0781250   0.0781250   0.0000000), wk =   0.0039062
        k(   64) = (   0.0781250   0.1093750   0.0000000), wk =   0.0078125
        k(   65) = (   0.0781250   0.1406250   0.0000000), wk =   0.0078125
        k(   66) = (   0.0781250   0.1718750   0.0000000), wk =   0.0078125
        k(   67) = (   0.0781250   0.2031250   0.0000000), wk =   0.0078125
        k(   68) = (   0.0781250   0.2343750   0.0000000), wk =   0.0078125
        k(   69) = (   0.0781250   0.2656250   0.0000000), wk =   0.0078125
        k(   70) = (   0.0781250   0.2968750   0.0000000), wk =   0.0078125
        k(   71) = (   0.0781250   0.3281250   0.0000000), wk =   0.0078125
        k(   72) = (   0.0781250   0.3593750   0.0000000), wk =   0.0078125
        k(   73) = (   0.0781250   0.3906250   0.0000000), wk =   0.0078125
        k(   74) = (   0.0781250   0.4218750   0.0000000), wk =   0.0078125
        k(   75) = (   0.0781250   0.4531250   0.0000000), wk =   0.0078125
        k(   76) = (   0.0781250   0.4843750   0.0000000), wk =   0.0078125
        k(   77) = (   0.0781250  -0.4843750   0.0000000), wk =   0.0078125
        k(   78) = (   0.0781250  -0.4531250   0.0000000), wk =   0.0078125
        k(   79) = (   0.0781250  -0.4218750   0.0000000), wk =   0.0078125
        k(   80) = (   0.0781250  -0.3906250   0.0000000), wk =   0.0078125
        k(   81) = (   0.0781250  -0.3593750   0.0000000), wk =   0.0078125
        k(   82) = (   0.0781250  -0.3281250   0.0000000), wk =   0.0078125
        k(   83) = (   0.0781250  -0.2968750   0.0000000), wk =   0.0078125
        k(   84) = (   0.0781250  -0.2656250   0.0000000), wk =   0.0078125
        k(   85) = (   0.0781250  -0.2343750   0.0000000), wk =   0.0078125
        k(   86) = (   0.0781250  -0.2031250   0.0000000), wk =   0.0078125
        k(   87) = (   0.0781250  -0.1718750   0.0000000), wk =   0.0078125
        k(   88) = (   0.0781250  -0.1406250   0.0000000), wk =   0.0078125
        k(   89) = (   0.0781250  -0.1093750   0.0000000), wk =   0.0078125
        k(   90) = (   0.0781250  -0.0781250   0.0000000), wk =   0.0039062
        k(   91) = (   0.1093750   0.1093750   0.0000000), wk =   0.0039062
        k(   92) = (   0.1093750   0.1406250   0.0000000), wk =   0.0078125
        k(   93) = (   0.1093750   0.1718750   0.0000000), wk =   0.0078125
        k(   94) = (   0.1093750   0.2031250   0.0000000), wk =   0.0078125
        k(   95) = (   0.1093750   0.2343750   0.0000000), wk =   0.0078125
        k(   96) = (   0.1093750   0.2656250   0.0000000), wk =   0.0078125
        k(   97) = (   0.1093750   0.2968750   0.0000000), wk =   0.0078125
        k(   98) = (   0.1093750   0.3281250   0.0000000), wk =   0.0078125
        k(   99) = (   0.1093750   0.3593750   0.0000000), wk =   0.0078125
        k(  100) = (   0.1093750   0.3906250   0.0000000), wk =   0.0078125
        k(  101) = (   0.1093750   0.4218750   0.0000000), wk =   0.0078125
        k(  102) = (   0.1093750   0.4531250   0.0000000), wk =   0.0078125
        k(  103) = (   0.1093750   0.4843750   0.0000000), wk =   0.0078125
        k(  104) = (   0.1093750  -0.4843750   0.0000000), wk =   0.0078125
        k(  105) = (   0.1093750  -0.4531250   0.0000000), wk =   0.0078125
        k(  106) = (   0.1093750  -0.4218750   0.0000000), wk =   0.0078125
        k(  107) = (   0.1093750  -0.3906250   0.0000000), wk =   0.0078125
        k(  108) = (   0.1093750  -0.3593750   0.0000000), wk =   0.0078125
        k(  109) = (   0.1093750  -0.3281250   0.0000000), wk =   0.0078125
        k(  110) = (   0.1093750  -0.2968750   0.0000000), wk =   0.0078125
        k(  111) = (   0.1093750  -0.2656250   0.0000000), wk =   0.0078125
        k(  112) = (   0.1093750  -0.2343750   0.0000000), wk =   0.0078125
        k(  113) = (   0.1093750  -0.2031250   0.0000000), wk =   0.0078125
        k(  114) = (   0.1093750  -0.1718750   0.0000000), wk =   0.0078125
        k(  115) = (   0.1093750  -0.1406250   0.0000000), wk =   0.0078125
        k(  116) = (   0.1093750  -0.1093750   0.0000000), wk =   0.0039062
        k(  117) = (   0.1406250   0.1406250   0.0000000), wk =   0.0039062
        k(  118) = (   0.1406250   0.1718750   0.0000000), wk =   0.0078125
        k(  119) = (   0.1406250   0.2031250   0.0000000), wk =   0.0078125
        k(  120) = (   0.1406250   0.2343750   0.0000000), wk =   0.0078125
        k(  121) = (   0.1406250   0.2656250   0.0000000), wk =   0.0078125
        k(  122) = (   0.1406250   0.2968750   0.0000000), wk =   0.0078125
        k(  123) = (   0.1406250   0.3281250   0.0000000), wk =   0.0078125
        k(  124) = (   0.1406250   0.3593750   0.0000000), wk =   0.0078125
        k(  125) = (   0.1406250   0.3906250   0.0000000), wk =   0.0078125
        k(  126) = (   0.1406250   0.4218750   0.0000000), wk =   0.0078125
        k(  127) = (   0.1406250   0.4531250   0.0000000), wk =   0.0078125
        k(  128) = (   0.1406250   0.4843750   0.0000000), wk =   0.0078125
        k(  129) = (   0.1406250  -0.4843750   0.0000000), wk =   0.0078125
        k(  130) = (   0.1406250  -0.4531250   0.0000000), wk =   0.0078125
        k(  131) = (   0.1406250  -0.4218750   0.0000000), wk =   0.0078125
        k(  132) = (   0.1406250  -0.3906250   0.0000000), wk =   0.0078125
        k(  133) = (   0.1406250  -0.3593750   0.0000000), wk =   0.0078125
        k(  134) = (   0.1406250  -0.3281250   0.0000000), wk =   0.0078125
        k(  135) = (   0.1406250  -0.2968750   0.0000000), wk =   0.0078125
        k(  136) = (   0.1406250  -0.2656250   0.0000000), wk =   0.0078125
        k(  137) = (   0.1406250  -0.2343750   0.0000000), wk =   0.0078125
        k(  138) = (   0.1406250  -0.2031250   0.0000000), wk =   0.0078125
        k(  139) = (   0.1406250  -0.1718750   0.0000000), wk =   0.0078125
        k(  140) = (   0.1406250  -0.1406250   0.0000000), wk =   0.0039062
        k(  141) = (   0.1718750   0.1718750   0.0000000), wk =   0.0039062
        k(  142) = (   0.1718750   0.2031250   0.0000000), wk =   0.0078125
        k(  143) = (   0.1718750   0.2343750   0.0000000), wk =   0.0078125
        k(  144) = (   0.1718750   0.2656250   0.0000000), wk =   0.0078125
        k(  145) = (   0.1718750   0.2968750   0.0000000), wk =   0.0078125
        k(  146) = (   0.1718750   0.3281250   0.0000000), wk =   0.0078125
        k(  147) = (   0.1718750   0.3593750   0.0000000), wk =   0.0078125
        k(  148) = (   0.1718750   0.3906250   0.0000000), wk =   0.0078125
        k(  149) = (   0.1718750   0.4218750   0.0000000), wk =   0.0078125
        k(  150) = (   0.1718750   0.4531250   0.0000000), wk =   0.0078125
        k(  151) = (   0.1718750   0.4843750   0.0000000), wk =   0.0078125
        k(  152) = (   0.1718750  -0.4843750   0.0000000), wk =   0.0078125
        k(  153) = (   0.1718750  -0.4531250   0.0000000), wk =   0.0078125
        k(  154) = (   0.1718750  -0.4218750   0.0000000), wk =   0.0078125
        k(  155) = (   0.1718750  -0.3906250   0.0000000), wk =   0.0078125
        k(  156) = (   0.1718750  -0.3593750   0.0000000), wk =   0.0078125
        k(  157) = (   0.1718750  -0.3281250   0.0000000), wk =   0.0078125
        k(  158) = (   0.1718750  -0.2968750   0.0000000), wk =   0.0078125
        k(  159) = (   0.1718750  -0.2656250   0.0000000), wk =   0.0078125
        k(  160) = (   0.1718750  -0.2343750   0.0000000), wk =   0.0078125
        k(  161) = (   0.1718750  -0.2031250   0.0000000), wk =   0.0078125
        k(  162) = (   0.1718750  -0.1718750   0.0000000), wk =   0.0039062
        k(  163) = (   0.2031250   0.2031250   0.0000000), wk =   0.0039062
        k(  164) = (   0.2031250   0.2343750   0.0000000), wk =   0.0078125
        k(  165) = (   0.2031250   0.2656250   0.0000000), wk =   0.0078125
        k(  166) = (   0.2031250   0.2968750   0.0000000), wk =   0.0078125
        k(  167) = (   0.2031250   0.3281250   0.0000000), wk =   0.0078125
        k(  168) = (   0.2031250   0.3593750   0.0000000), wk =   0.0078125
        k(  169) = (   0.2031250   0.3906250   0.0000000), wk =   0.0078125
        k(  170) = (   0.2031250   0.4218750   0.0000000), wk =   0.0078125
        k(  171) = (   0.2031250   0.4531250   0.0000000), wk =   0.0078125
        k(  172) = (   0.2031250   0.4843750   0.0000000), wk =   0.0078125
        k(  173) = (   0.2031250  -0.4843750   0.0000000), wk =   0.0078125
        k(  174) = (   0.2031250  -0.4531250   0.0000000), wk =   0.0078125
        k(  175) = (   0.2031250  -0.4218750   0.0000000), wk =   0.0078125
        k(  176) = (   0.2031250  -0.3906250   0.0000000), wk =   0.0078125
        k(  177) = (   0.2031250  -0.3593750   0.0000000), wk =   0.0078125
        k(  178) = (   0.2031250  -0.3281250   0.0000000), wk =   0.0078125
        k(  179) = (   0.2031250  -0.2968750   0.0000000), wk =   0.0078125
        k(  180) = (   0.2031250  -0.2656250   0.0000000), wk =   0.0078125
        k(  181) = (   0.2031250  -0.2343750   0.0000000), wk =   0.0078125
        k(  182) = (   0.2031250  -0.2031250   0.0000000), wk =   0.0039062
        k(  183) = (   0.2343750   0.2343750   0.0000000), wk =   0.0039062
        k(  184) = (   0.2343750   0.2656250   0.0000000), wk =   0.0078125
        k(  185) = (   0.2343750   0.2968750   0.0000000), wk =   0.0078125
        k(  186) = (   0.2343750   0.3281250   0.0000000), wk =   0.0078125
        k(  187) = (   0.2343750   0.3593750   0.0000000), wk =   0.0078125
        k(  188) = (   0.2343750   0.3906250   0.0000000), wk =   0.0078125
        k(  189) = (   0.2343750   0.4218750   0.0000000), wk =   0.0078125
        k(  190) = (   0.2343750   0.4531250   0.0000000), wk =   0.0078125
        k(  191) = (   0.2343750   0.4843750   0.0000000), wk =   0.0078125
        k(  192) = (   0.2343750  -0.4843750   0.0000000), wk =   0.0078125
        k(  193) = (   0.2343750  -0.4531250   0.0000000), wk =   0.0078125
        k(  194) = (   0.2343750  -0.4218750   0.0000000), wk =   0.0078125
        k(  195) = (   0.2343750  -0.3906250   0.0000000), wk =   0.0078125
        k(  196) = (   0.2343750  -0.3593750   0.0000000), wk =   0.0078125
        k(  197) = (   0.2343750  -0.3281250   0.0000000), wk =   0.0078125
        k(  198) = (   0.2343750  -0.2968750   0.0000000), wk =   0.0078125
        k(  199) = (   0.2343750  -0.2656250   0.0000000), wk =   0.0078125
        k(  200) = (   0.2343750  -0.2343750   0.0000000), wk =   0.0039062
        k(  201) = (   0.2656250   0.2656250   0.0000000), wk =   0.0039062
        k(  202) = (   0.2656250   0.2968750   0.0000000), wk =   0.0078125
        k(  203) = (   0.2656250   0.3281250   0.0000000), wk =   0.0078125
        k(  204) = (   0.2656250   0.3593750   0.0000000), wk =   0.0078125
        k(  205) = (   0.2656250   0.3906250   0.0000000), wk =   0.0078125
        k(  206) = (   0.2656250   0.4218750   0.0000000), wk =   0.0078125
        k(  207) = (   0.2656250   0.4531250   0.0000000), wk =   0.0078125
        k(  208) = (   0.2656250   0.4843750   0.0000000), wk =   0.0078125
        k(  209) = (   0.2656250  -0.4843750   0.0000000), wk =   0.0078125
        k(  210) = (   0.2656250  -0.4531250   0.0000000), wk =   0.0078125
        k(  211) = (   0.2656250  -0.4218750   0.0000000), wk =   0.0078125
        k(  212) = (   0.2656250  -0.3906250   0.0000000), wk =   0.0078125
        k(  213) = (   0.2656250  -0.3593750   0.0000000), wk =   0.0078125
        k(  214) = (   0.2656250  -0.3281250   0.0000000), wk =   0.0078125
        k(  215) = (   0.2656250  -0.2968750   0.0000000), wk =   0.0078125
        k(  216) = (   0.2656250  -0.2656250   0.0000000), wk =   0.0039062
        k(  217) = (   0.2968750   0.2968750   0.0000000), wk =   0.0039062
        k(  218) = (   0.2968750   0.3281250   0.0000000), wk =   0.0078125
        k(  219) = (   0.2968750   0.3593750   0.0000000), wk =   0.0078125
        k(  220) = (   0.2968750   0.3906250   0.0000000), wk =   0.0078125
        k(  221) = (   0.2968750   0.4218750   0.0000000), wk =   0.0078125
        k(  222) = (   0.2968750   0.4531250   0.0000000), wk =   0.0078125
        k(  223) = (   0.2968750   0.4843750   0.0000000), wk =   0.0078125
        k(  224) = (   0.2968750  -0.4843750   0.0000000), wk =   0.0078125
        k(  225) = (   0.2968750  -0.4531250   0.0000000), wk =   0.0078125
        k(  226) = (   0.2968750  -0.4218750   0.0000000), wk =   0.0078125
        k(  227) = (   0.2968750  -0.3906250   0.0000000), wk =   0.0078125
        k(  228) = (   0.2968750  -0.3593750   0.0000000), wk =   0.0078125
        k(  229) = (   0.2968750  -0.3281250   0.0000000), wk =   0.0078125
        k(  230) = (   0.2968750  -0.2968750   0.0000000), wk =   0.0039062
        k(  231) = (   0.3281250   0.3281250   0.0000000), wk =   0.0039062
        k(  232) = (   0.3281250   0.3593750   0.0000000), wk =   0.0078125
        k(  233) = (   0.3281250   0.3906250   0.0000000), wk =   0.0078125
        k(  234) = (   0.3281250   0.4218750   0.0000000), wk =   0.0078125
        k(  235) = (   0.3281250   0.4531250   0.0000000), wk =   0.0078125
        k(  236) = (   0.3281250   0.4843750   0.0000000), wk =   0.0078125
        k(  237) = (   0.3281250  -0.4843750   0.0000000), wk =   0.0078125
        k(  238) = (   0.3281250  -0.4531250   0.0000000), wk =   0.0078125
        k(  239) = (   0.3281250  -0.4218750   0.0000000), wk =   0.0078125
        k(  240) = (   0.3281250  -0.3906250   0.0000000), wk =   0.0078125
        k(  241) = (   0.3281250  -0.3593750   0.0000000), wk =   0.0078125
        k(  242) = (   0.3281250  -0.3281250   0.0000000), wk =   0.0039062
        k(  243) = (   0.3593750   0.3593750   0.0000000), wk =   0.0039062
        k(  244) = (   0.3593750   0.3906250   0.0000000), wk =   0.0078125
        k(  245) = (   0.3593750   0.4218750   0.0000000), wk =   0.0078125
        k(  246) = (   0.3593750   0.4531250   0.0000000), wk =   0.0078125
        k(  247) = (   0.3593750   0.4843750   0.0000000), wk =   0.0078125
        k(  248) = (   0.3593750  -0.4843750   0.0000000), wk =   0.0078125
        k(  249) = (   0.3593750  -0.4531250   0.0000000), wk =   0.0078125
        k(  250) = (   0.3593750  -0.4218750   0.0000000), wk =   0.0078125
        k(  251) = (   0.3593750  -0.3906250   0.0000000), wk =   0.0078125
        k(  252) = (   0.3593750  -0.3593750   0.0000000), wk =   0.0039062
        k(  253) = (   0.3906250   0.3906250   0.0000000), wk =   0.0039062
        k(  254) = (   0.3906250   0.4218750   0.0000000), wk =   0.0078125
        k(  255) = (   0.3906250   0.4531250   0.0000000), wk =   0.0078125
        k(  256) = (   0.3906250   0.4843750   0.0000000), wk =   0.0078125
        k(  257) = (   0.3906250  -0.4843750   0.0000000), wk =   0.0078125
        k(  258) = (   0.3906250  -0.4531250   0.0000000), wk =   0.0078125
        k(  259) = (   0.3906250  -0.4218750   0.0000000), wk =   0.0078125
        k(  260) = (   0.3906250  -0.3906250   0.0000000), wk =   0.0039062
        k(  261) = (   0.4218750   0.4218750   0.0000000), wk =   0.0039062
        k(  262) = (   0.4218750   0.4531250   0.0000000), wk =   0.0078125
        k(  263) = (   0.4218750   0.4843750   0.0000000), wk =   0.0078125
        k(  264) = (   0.4218750  -0.4843750   0.0000000), wk =   0.0078125
        k(  265) = (   0.4218750  -0.4531250   0.0000000), wk =   0.0078125
        k(  266) = (   0.4218750  -0.4218750   0.0000000), wk =   0.0039062
        k(  267) = (   0.4531250   0.4531250   0.0000000), wk =   0.0039062
        k(  268) = (   0.4531250   0.4843750   0.0000000), wk =   0.0078125
        k(  269) = (   0.4531250  -0.4843750   0.0000000), wk =   0.0078125
        k(  270) = (   0.4531250  -0.4531250   0.0000000), wk =   0.0039062
        k(  271) = (   0.4843750   0.4843750   0.0000000), wk =   0.0039062
        k(  272) = (   0.4843750  -0.4843750   0.0000000), wk =   0.0039062

     Dense  grid:   117037 G-vectors     FFT dimensions: (  30,  30, 300)

     Dynamical RAM for                 wfc:       1.79 MB

     Dynamical RAM for     wfc (w. buffer):       1.79 MB

     Dynamical RAM for           str. fact:       1.79 MB

     Dynamical RAM for           local pot:       0.00 MB

     Dynamical RAM for          nlocal pot:       3.57 MB

     Dynamical RAM for                qrad:       0.92 MB

     Dynamical RAM for          rho,v,vnew:      11.54 MB

     Dynamical RAM for               rhoin:       3.85 MB

     Dynamical RAM for            rho*nmix:      28.57 MB

     Dynamical RAM for           G-vectors:       7.59 MB

     Dynamical RAM for          h,s,v(r/c):       0.01 MB

     Dynamical RAM for          <psi|beta>:       0.00 MB

     Dynamical RAM for                 psi:       3.57 MB

     Dynamical RAM for                hpsi:       3.57 MB

     Dynamical RAM for      wfcinit/wfcrot:       3.57 MB

     Estimated static dynamical RAM per process >      44.90 MB

     Estimated max dynamical RAM per process >      80.63 MB

     Estimated total dynamical RAM >      52.09 GB

     Initial potential from superposition of free atoms

     starting charge       7.9999, renormalised to       8.0000

     negative rho (up, down):  2.515E-06 0.000E+00
     Starting wfcs are    8 randomized atomic wfcs

     total cpu time spent up to now is        2.4 secs

     Self-consistent Calculation

     iteration #  1     ecut=   100.00 Ry     beta= 0.70
     Davidson diagonalization with overlap

---- Real-time Memory Report at c_bands before calling an iterative solver
           186 MiB given to the printing process from OS
             0 MiB allocation reported by mallinfo(arena+hblkhd)
        176331 MiB available memory on the node where the printing process lives
------------------
     ethr =  1.00E-02,  avg # of iterations =  5.8

     total cpu time spent up to now is        3.1 secs

     total energy              =     -24.09002543 Ry
     estimated scf accuracy    <       0.20975753 Ry

     iteration #  2     ecut=   100.00 Ry     beta= 0.70
     Davidson diagonalization with overlap

---- Real-time Memory Report at c_bands before calling an iterative solver
           225 MiB given to the printing process from OS
             0 MiB allocation reported by mallinfo(arena+hblkhd)
        175985 MiB available memory on the node where the printing process lives
------------------
     ethr =  2.62E-03,  avg # of iterations =  4.5

     total cpu time spent up to now is        3.6 secs

     total energy              =     -24.12295921 Ry
     estimated scf accuracy    <       0.00210117 Ry

     iteration #  3     ecut=   100.00 Ry     beta= 0.70
     Davidson diagonalization with overlap

---- Real-time Memory Report at c_bands before calling an iterative solver
           230 MiB given to the printing process from OS
             0 MiB allocation reported by mallinfo(arena+hblkhd)
        175979 MiB available memory on the node where the printing process lives
------------------
     ethr =  2.63E-05,  avg # of iterations = 13.7

     total cpu time spent up to now is        4.6 secs

     total energy              =     -24.12338550 Ry
     estimated scf accuracy    <       0.00013547 Ry

     iteration #  4     ecut=   100.00 Ry     beta= 0.70
     Davidson diagonalization with overlap

---- Real-time Memory Report at c_bands before calling an iterative solver
           234 MiB given to the printing process from OS
             0 MiB allocation reported by mallinfo(arena+hblkhd)
        175974 MiB available memory on the node where the printing process lives
------------------
     ethr =  1.69E-06,  avg # of iterations =  6.7

     total cpu time spent up to now is        5.2 secs

     total energy              =     -24.12339906 Ry
     estimated scf accuracy    <       0.00000312 Ry

     iteration #  5     ecut=   100.00 Ry     beta= 0.70
     Davidson diagonalization with overlap

---- Real-time Memory Report at c_bands before calling an iterative solver
           237 MiB given to the printing process from OS
             0 MiB allocation reported by mallinfo(arena+hblkhd)
        175971 MiB available memory on the node where the printing process lives
------------------
     ethr =  3.90E-08,  avg # of iterations =  3.3

     total cpu time spent up to now is        5.7 secs

     total energy              =     -24.12340060 Ry
     estimated scf accuracy    <       0.00000008 Ry

     iteration #  6     ecut=   100.00 Ry     beta= 0.70
     Davidson diagonalization with overlap

---- Real-time Memory Report at c_bands before calling an iterative solver
           241 MiB given to the printing process from OS
             0 MiB allocation reported by mallinfo(arena+hblkhd)
        175967 MiB available memory on the node where the printing process lives
------------------
     ethr =  1.01E-09,  avg # of iterations =  3.0

     total cpu time spent up to now is        6.2 secs

     total energy              =     -24.12340064 Ry
     estimated scf accuracy    <          2.1E-09 Ry

     iteration #  7     ecut=   100.00 Ry     beta= 0.70
     Davidson diagonalization with overlap

---- Real-time Memory Report at c_bands before calling an iterative solver
           245 MiB given to the printing process from OS
             0 MiB allocation reported by mallinfo(arena+hblkhd)
        175970 MiB available memory on the node where the printing process lives
------------------
     ethr =  2.57E-11,  avg # of iterations =  3.0

     total cpu time spent up to now is        6.7 secs

     End of self-consistent calculation

          k = 0.0156 0.0271 0.0000 ( 14737 PWs)   bands (ev):

   -22.3495 -10.6687  -6.0491  -6.0176   0.4465   1.3820   1.6939   2.2210

     occupation numbers 
     1.0000   1.0000   1.0000   1.0000  -0.0000  -0.0000  -0.0000  -0.0000

          k = 0.0156 0.0631 0.0000 ( 14735 PWs)   bands (ev):

   -22.2918 -10.5988  -6.2778  -6.1438   0.5249   1.4617   1.7748   2.3011

     occupation numbers 
     1.0000   1.0000   1.0000   1.0000  -0.0000  -0.0000  -0.0000  -0.0000

          k = 0.0156 0.0992 0.0000 ( 14715 PWs)   bands (ev):

   -22.1881 -10.4733  -6.6701  -6.3556   0.6659   1.6053   1.9207   2.4460

     occupation numbers 
     1.0000   1.0000   1.0000   1.0000  -0.0000  -0.0000  -0.0000  -0.0000

          k = 0.0156 0.1353 0.0000 ( 14693 PWs)   bands (ev):

   -22.0385 -10.2925  -7.1991  -6.6315   0.8697   1.8125   2.1314   2.6550

     occupation numbers 
     1.0000   1.0000   1.0000   1.0000  -0.0000  -0.0000  -0.0000  -0.0000

          k = 0.0156 0.1714 0.0000 ( 14677 PWs)   bands (ev):

   -21.8432 -10.0572  -7.8348  -6.9488   1.1360   2.0831   2.4070   2.9282

     occupation numbers 
     1.0000   1.0000   1.0000   1.0000  -0.0000  -0.0000  -0.0000  -0.0000

          k = 0.0156 0.2075 0.0000 ( 14659 PWs)   bands (ev):

   -21.6026  -9.7684  -8.5492  -7.2870   1.4649   2.4165   2.7474   3.2655

     occupation numbers 
     1.0000   1.0000   1.0000   1.0000  -0.0000  -0.0000  -0.0000  -0.0000

          k = 0.0156 0.2436 0.0000 ( 14640 PWs)   bands (ev):

   -21.3170  -9.4276  -9.3177  -7.6287   1.8562   2.8114   3.1527   3.6658

     occupation numbers 
     1.0000   1.0000   1.0000   1.0000  -0.0000  -0.0000  -0.0000  -0.0000

          k = 0.0156 0.2797 0.0000 ( 14657 PWs)   bands (ev):

   -20.9869 -10.1204  -9.0368  -7.9607   2.3093   3.2613   3.6226   4.1159

     occupation numbers 
     1.0000   1.0000   1.0000   1.0000  -0.0000  -0.0000  -0.0000  -0.0000

          k = 0.0156 0.3157 0.0000 ( 14650 PWs)   bands (ev):

   -20.6129 -10.9412  -8.5989  -8.2724   2.8238   3.5391   3.9148   4.1573

     occupation numbers 
     1.0000   1.0000   1.0000   1.0000  -0.0000  -0.0000  -0.0000  -0.0000

          k = 0.0156 0.3518 0.0000 ( 14653 PWs)   bands (ev):

   -20.1960 -11.7672  -8.5561  -8.1181   2.7570   3.3985   4.4128   4.7558

     occupation numbers 
     1.0000   1.0000   1.0000   1.0000  -0.0000  -0.0000  -0.0000  -0.0000

          k = 0.0156 0.3879 0.0000 ( 14639 PWs)   bands (ev):

   -19.7371 -12.5880  -8.8060  -7.6010   1.8906   4.0294   5.0156   5.0526

     occupation numbers 
     1.0000   1.0000   1.0000   1.0000  -0.0000  -0.0000  -0.0000  -0.0000

          k = 0.0156 0.4240 0.0000 ( 14593 PWs)   bands (ev):

   -19.2378 -13.3949  -9.0176  -7.0585   1.0395   4.6734   4.9797   5.7570

     occupation numbers 
     1.0000   1.0000   1.0000   1.0000  -0.0000  -0.0000  -0.0000  -0.0000

          k = 0.0156 0.4601 0.0000 ( 14588 PWs)   bands (ev):

   -18.7009 -14.1800  -9.1878  -6.5092   0.2359   4.8067   5.5268   6.5212

     occupation numbers 
     1.0000   1.0000   1.0000   1.0000  -0.0000  -0.0000  -0.0000  -0.0000

          k = 0.0156 0.4962 0.0000 ( 14595 PWs)   bands (ev):

   -18.1319 -14.9339  -9.3143  -5.9888  -0.4768   4.7608   6.3279   7.3402

     occupation numbers 
     1.0000   1.0000   1.0000   1.0000  -0.0000  -0.0000  -0.0000  -0.0000

          k = 0.0156 0.5322 0.0000 ( 14587 PWs)   bands (ev):

   -17.5488 -15.6359  -9.3955  -5.5643  -1.0261   4.7258   7.1927   8.2064

     occupation numbers 
     1.0000   1.0000   1.0000   1.0000  -0.0000  -0.0000  -0.0000  -0.0000

          k = 0.0156 0.5683 0.0000 ( 14585 PWs)   bands (ev):

   -17.0729 -16.1630  -9.4304  -5.3446  -1.2997   4.7101   8.1069   8.5901

     occupation numbers 
     1.0000   1.0000   1.0000   1.0000  -0.0000  -0.0000  -0.0000  -0.0000

          k = 0.0156-0.5503 0.0000 ( 14587 PWs)   bands (ev):

   -17.2751 -15.9437  -9.4188  -5.4212  -1.2051   4.7154   7.6448   8.6497

     occupation numbers 
     1.0000   1.0000   1.0000   1.0000  -0.0000  -0.0000  -0.0000  -0.0000

          k = 0.0156-0.5142 0.0000 ( 14587 PWs)   bands (ev):

   -17.8397 -15.2939  -9.3606  -5.7585  -0.7781   4.7411   6.7533   7.7684

     occupation numbers 
     1.0000   1.0000   1.0000   1.0000  -0.0000  -0.0000  -0.0000  -0.0000

          k = 0.0156-0.4781 0.0000 ( 14584 PWs)   bands (ev):

   -18.4199 -14.5616  -9.2566  -6.2422  -0.1354   4.7838   5.9179   6.9240

     occupation numbers 
     1.0000   1.0000   1.0000   1.0000  -0.0000  -0.0000  -0.0000  -0.0000

          k = 0.0156-0.4420 0.0000 ( 14594 PWs)   bands (ev):

   -18.9739 -13.7907  -9.1080  -6.7830   0.6295   4.8121   5.1719   6.1319

     occupation numbers 
     1.0000   1.0000   1.0000   1.0000  -0.0000  -0.0000  -0.0000  -0.0000

          k = 0.0156-0.4059 0.0000 ( 14618 PWs)   bands (ev):

   -19.4924 -12.9937  -8.9168  -7.3320   1.4611   4.3601   4.9803   5.3968

     occupation numbers 
     1.0000   1.0000   1.0000   1.0000  -0.0000  -0.0000  -0.0000  -0.0000

          k = 0.0156-0.3699 0.0000 ( 14653 PWs)   bands (ev):

   -19.9717 -12.1788  -8.6856  -7.8636   2.3240   3.7074   4.7236   5.0452

     occupation numbers 
     1.0000   1.0000   1.0000   1.0000  -0.0000  -0.0000  -0.0000  -0.0000

          k = 0.0156-0.3338 0.0000 ( 14639 PWs)   bands (ev):

   -20.4098 -11.3543  -8.4182  -8.3635   3.1038   3.1808   4.1258   4.4490

     occupation numbers 
     1.0000   1.0000   1.0000   1.0000  -0.0000  -0.0000  -0.0000  -0.0000

          k = 0.0156-0.2977 0.0000 ( 14656 PWs)   bands (ev):

   -20.8053 -10.5295  -8.8235  -8.1196   2.5590   3.4898   3.8818   4.1042

     occupation numbers 
     1.0000   1.0000   1.0000   1.0000  -0.0000  -0.0000  -0.0000  -0.0000

          k = 0.0156-0.2616 0.0000 ( 14651 PWs)   bands (ev):

   -21.1574  -9.7159  -9.2383  -7.7967   2.0750   3.0305   3.3795   3.8872

     occupation numbers 
     1.0000   1.0000   1.0000   1.0000  -0.0000  -0.0000  -0.0000  -0.0000

          k = 0.0156-0.2255 0.0000 ( 14657 PWs)   bands (ev):

   -21.4654  -9.6044  -8.9280  -7.4583   1.6528   2.6064   2.9419   3.4577

     occupation numbers 
     1.0000   1.0000   1.0000   1.0000  -0.0000  -0.0000  -0.0000  -0.0000

          k = 0.0156-0.1894 0.0000 ( 14653 PWs)   bands (ev):

   -21.7286  -9.9194  -8.1838  -7.1165   1.2927   2.2420   2.5690   3.0892

     occupation numbers 
     1.0000   1.0000   1.0000   1.0000  -0.0000  -0.0000  -0.0000  -0.0000

          k = 0.0156-0.1534 0.0000 ( 14677 PWs)   bands (ev):

   -21.9466 -10.1816  -7.5054  -6.7864   0.9950   1.9399   2.2611   2.7836

     occupation numbers 
     1.0000   1.0000   1.0000   1.0000  -0.0000  -0.0000  -0.0000  -0.0000

          k = 0.0156-0.1173 0.0000 ( 14705 PWs)   bands (ev):

   -22.1190 -10.3897  -6.9194  -6.4869   0.7599   1.7010   2.0179   2.5425

     occupation numbers 
     1.0000   1.0000   1.0000   1.0000  -0.0000  -0.0000  -0.0000  -0.0000

          k = 0.0156-0.0812 0.0000 ( 14725 PWs)   bands (ev):

   -22.2457 -10.5430  -6.4550  -6.2402   0.5875   1.5256   1.8396   2.3657

     occupation numbers 
     1.0000   1.0000   1.0000   1.0000  -0.0000  -0.0000  -0.0000  -0.0000

          k = 0.0156-0.0451 0.0000 ( 14741 PWs)   bands (ev):

   -22.3264 -10.6408  -6.1416  -6.0689   0.4779   1.4139   1.7262   2.2528

     occupation numbers 
     1.0000   1.0000   1.0000   1.0000  -0.0000  -0.0000  -0.0000  -0.0000

          k = 0.0156-0.0090 0.0000 ( 14749 PWs)   bands (ev):

   -22.3610 -10.6827  -6.0023  -5.9917   0.4309   1.3660   1.6775   2.2045

     occupation numbers 
     1.0000   1.0000   1.0000   1.0000  -0.0000  -0.0000  -0.0000  -0.0000

          k = 0.0469 0.0812 0.0000 ( 14711 PWs)   bands (ev):

   -22.2111 -10.5011  -6.5739  -6.3218   0.6346   1.5734   1.8883   2.4142

     occupation numbers 
     1.0000   1.0000   1.0000   1.0000  -0.0000  -0.0000  -0.0000  -0.0000

          k = 0.0469 0.1173 0.0000 ( 14697 PWs)   bands (ev):

   -22.0845 -10.3480  -7.0125  -6.5814   0.8070   1.7488   2.0666   2.5909

     occupation numbers 
     1.0000   1.0000   1.0000   1.0000  -0.0000  -0.0000  -0.0000  -0.0000

          k = 0.0469 0.1534 0.0000 ( 14681 PWs)   bands (ev):

   -21.9121 -10.1401  -7.5722  -6.8946   1.0421   1.9877   2.3097   2.8318

     occupation numbers 
     1.0000   1.0000   1.0000   1.0000  -0.0000  -0.0000  -0.0000  -0.0000

          k = 0.0469 0.1894 0.0000 ( 14653 PWs)   bands (ev):

   -21.6942  -9.8781  -8.2275  -7.2367   1.3398   2.2897   2.6177   3.1371

     occupation numbers 
     1.0000   1.0000   1.0000   1.0000  -0.0000  -0.0000  -0.0000  -0.0000

          k = 0.0469 0.2255 0.0000 ( 14662 PWs)   bands (ev):

   -21.4311  -9.5634  -8.9531  -7.5880   1.7000   2.6542   2.9905   3.5062

     occupation numbers 
     1.0000   1.0000   1.0000   1.0000  -0.0000  -0.0000  -0.0000  -0.0000

          k = 0.0469 0.2616 0.0000 ( 14647 PWs)   bands (ev):

   -21.1233  -9.7267  -9.1976  -7.9333   2.1224   3.0784   3.4283   3.9356

     occupation numbers 
     1.0000   1.0000   1.0000   1.0000  -0.0000  -0.0000  -0.0000  -0.0000

          k = 0.0469 0.2977 0.0000 ( 14660 PWs)   bands (ev):

   -20.7714 -10.5294  -8.7832  -8.2613   2.6064   3.5350   3.9306   4.0657

     occupation numbers 
     1.0000   1.0000   1.0000   1.0000  -0.0000  -0.0000  -0.0000  -0.0000

          k = 0.0469 0.3338 0.0000 ( 14642 PWs)   bands (ev):

   -20.3761 -11.3460  -8.5634  -8.3235   3.1485   3.1515   4.1646   4.4976

     occupation numbers 
     1.0000   1.0000   1.0000   1.0000  -0.0000  -0.0000  -0.0000  -0.0000

          k = 0.0469 0.3699 0.0000 ( 14630 PWs)   bands (ev):

   -19.9383 -12.1644  -8.8332  -7.8239   2.2959   3.7559   4.7660   5.1252

     occupation numbers 
     1.0000   1.0000   1.0000   1.0000  -0.0000  -0.0000  -0.0000  -0.0000

          k = 0.0469 0.4059 0.0000 ( 14613 PWs)   bands (ev):

   -19.4594 -12.9746  -9.0660  -7.2926   1.4400   4.4135   5.1759   5.4390

     occupation numbers 
     1.0000   1.0000   1.0000   1.0000  -0.0000  -0.0000  -0.0000  -0.0000

          k = 0.0469 0.4420 0.0000 ( 14599 PWs)   bands (ev):

   -18.9413 -13.7680  -9.2583  -6.7436   0.6141   4.9829   5.2507   6.1725

     occupation numbers 
     1.0000   1.0000   1.0000   1.0000  -0.0000  -0.0000  -0.0000  -0.0000

          k = 0.0469 0.4781 0.0000 ( 14595 PWs)   bands (ev):

   -18.3879 -14.5362  -9.4075  -6.2024  -0.1466   4.9863   5.9647   6.9617

     occupation numbers 
     1.0000   1.0000   1.0000   1.0000  -0.0000  -0.0000  -0.0000  -0.0000

          k = 0.0469 0.5142 0.0000 ( 14590 PWs)   bands (ev):

   -17.8085 -15.2664  -9.5119  -5.7178  -0.7872   4.9449   6.7980   7.8004

     occupation numbers 
     1.0000   1.0000   1.0000   1.0000  -0.0000  -0.0000  -0.0000  -0.0000

          k = 0.0469 0.5503 0.0000 ( 14602 PWs)   bands (ev):

   -17.2452 -15.9142  -9.5702  -5.3791  -1.2138   4.9194   7.6876   8.6690

     occupation numbers 
     1.0000   1.0000   1.0000   1.0000  -0.0000  -0.0000  -0.0000  -0.0000

          k = 0.0469 0.5864 0.0000 ( 14592 PWs)   bands (ev):

   -17.0436 -16.1327  -9.5819  -5.3021  -1.3085   4.9141   8.1484   8.6305

     occupation numbers 
     1.0000   1.0000   1.0000   1.0000  -0.0000  -0.0000  -0.0000  -0.0000

          k = 0.0469-0.5322 0.0000 ( 14592 PWs)   bands (ev):

   -17.5182 -15.6073  -9.5468  -5.5228  -1.0348   4.9297   7.2365   8.2337

     occupation numbers 
     1.0000   1.0000   1.0000   1.0000  -0.0000  -0.0000  -0.0000  -0.0000

          k = 0.0469-0.4962 0.0000 ( 14602 PWs)   bands (ev):

   -18.1004 -14.9074  -9.4654  -5.9485  -0.4867   4.9643   6.3734   7.3755

     occupation numbers 
     1.0000   1.0000   1.0000   1.0000  -0.0000  -0.0000  -0.0000  -0.0000

          k = 0.0469-0.4601 0.0000 ( 14590 PWs)   bands (ev):

   -18.6687 -14.1559  -9.3384  -6.4697   0.2229   5.0055   5.5774   6.5602

     occupation numbers 
     1.0000   1.0000   1.0000   1.0000  -0.0000  -0.0000  -0.0000  -0.0000

          k = 0.0469-0.4240 0.0000 ( 14605 PWs)   bands (ev):

   -19.2051 -13.3739  -9.1674  -7.0191   1.0214   4.7478   5.1548   5.7983

     occupation numbers 
     1.0000   1.0000   1.0000   1.0000  -0.0000  -0.0000  -0.0000  -0.0000

          k = 0.0469-0.3879 0.0000 ( 14624 PWs)   bands (ev):

   -19.7039 -12.5711  -8.9545  -7.5615   1.8660   4.0791   5.0946   5.2134

     occupation numbers 
     1.0000   1.0000   1.0000   1.0000  -0.0000  -0.0000  -0.0000  -0.0000

          k = 0.0469-0.3518 0.0000 ( 14636 PWs)   bands (ev):

   -20.1624 -11.7556  -8.7027  -8.0783   2.7257   3.4465   4.4547   4.8051

     occupation numbers 
     1.0000   1.0000   1.0000   1.0000  -0.0000  -0.0000  -0.0000  -0.0000

          k = 0.0469-0.3157 0.0000 ( 14652 PWs)   bands (ev):

   -20.5791 -10.9368  -8.5587  -8.4160   2.8714   3.5275   3.9289   4.2062

     occupation numbers 
     1.0000   1.0000   1.0000   1.0000  -0.0000  -0.0000  -0.0000  -0.0000

          k = 0.0469-0.2797 0.0000 ( 14659 PWs)   bands (ev):

   -20.9529 -10.1254  -8.9963  -8.1001   2.3567   3.3091   3.6715   4.1614

     occupation numbers 
     1.0000   1.0000   1.0000   1.0000  -0.0000  -0.0000  -0.0000  -0.0000

          k = 0.0469-0.2436 0.0000 ( 14658 PWs)   bands (ev):

   -21.2828  -9.3868  -9.3352  -7.7622   1.9035   2.8592   3.2013   3.7137

     occupation numbers 
     1.0000   1.0000   1.0000   1.0000  -0.0000  -0.0000  -0.0000  -0.0000

          k = 0.0469-0.2075 0.0000 ( 14658 PWs)   bands (ev):

   -21.5683  -9.7273  -8.5830  -7.4122   1.5121   2.4642   2.7960   3.3137

     occupation numbers 
     1.0000   1.0000   1.0000   1.0000  -0.0000  -0.0000  -0.0000  -0.0000

          k = 0.0469-0.1714 0.0000 ( 14656 PWs)   bands (ev):

   -21.8088 -10.0158  -7.8895  -7.0633   1.1832   2.1308   2.4556   2.9768

     occupation numbers 
     1.0000   1.0000   1.0000   1.0000  -0.0000  -0.0000  -0.0000  -0.0000

          k = 0.0469-0.1353 0.0000 ( 14685 PWs)   bands (ev):

   -22.0040 -10.2508  -7.2787  -6.7329   0.9167   1.8603   2.1800   2.7033

     occupation numbers 
     1.0000   1.0000   1.0000   1.0000  -0.0000  -0.0000  -0.0000  -0.0000

          k = 0.0469-0.0992 0.0000 ( 14703 PWs)   bands (ev):

   -22.1535 -10.4315  -6.7766  -6.4432   0.7129   1.6532   1.9693   2.4943

     occupation numbers 
     1.0000   1.0000   1.0000   1.0000  -0.0000  -0.0000  -0.0000  -0.0000

          k = 0.0469-0.0631 0.0000 ( 14725 PWs)   bands (ev):

   -22.2572 -10.5569  -6.4070  -6.2209   0.5719   1.5096   1.8234   2.3494

     occupation numbers 
     1.0000   1.0000   1.0000   1.0000  -0.0000  -0.0000  -0.0000  -0.0000

          k = 0.0469-0.0271 0.0000 ( 14745 PWs)   bands (ev):

   -22.3149 -10.6268  -6.1883  -6.0930   0.4936   1.4298   1.7424   2.2689

     occupation numbers 
     1.0000   1.0000   1.0000   1.0000  -0.0000  -0.0000  -0.0000  -0.0000

          k = 0.0781 0.1353 0.0000 ( 14669 PWs)   bands (ev):

   -21.9351 -10.1677  -7.4659  -6.8942   1.0108   1.9559   2.2773   2.8001

     occupation numbers 
     1.0000   1.0000   1.0000   1.0000  -0.0000  -0.0000  -0.0000  -0.0000

          k = 0.0781 0.1714 0.0000 ( 14651 PWs)   bands (ev):

   -21.7400  -9.9331  -8.0216  -7.2559   1.2773   2.2263   2.5529   3.0731

     occupation numbers 
     1.0000   1.0000   1.0000   1.0000  -0.0000  -0.0000  -0.0000  -0.0000

          k = 0.0781 0.2075 0.0000 ( 14651 PWs)   bands (ev):

   -21.4997  -9.6451  -8.6663  -7.6333   1.6064   2.5596   2.8933   3.4102

     occupation numbers 
     1.0000   1.0000   1.0000   1.0000  -0.0000  -0.0000  -0.0000  -0.0000

          k = 0.0781 0.2436 0.0000 ( 14667 PWs)   bands (ev):

   -21.2145  -9.3801  -9.3052  -8.0053   1.9979   2.9547   3.2986   3.8106

     occupation numbers 
     1.0000   1.0000   1.0000   1.0000  -0.0000  -0.0000  -0.0000  -0.0000

          k = 0.0781 0.2797 0.0000 ( 14663 PWs)   bands (ev):

   -20.8849 -10.1415  -8.9154  -8.3588   2.4513   3.4048   3.7687   4.2409

     occupation numbers 
     1.0000   1.0000   1.0000   1.0000  -0.0000  -0.0000  -0.0000  -0.0000

          k = 0.0781 0.3157 0.0000 ( 14649 PWs)   bands (ev):

   -20.5116 -10.9316  -8.6856  -8.4786   2.9661   3.4751   3.9815   4.3037

     occupation numbers 
     1.0000   1.0000   1.0000   1.0000  -0.0000  -0.0000  -0.0000  -0.0000

          k = 0.0781 0.3518 0.0000 ( 14645 PWs)   bands (ev):

   -20.0954 -11.7349  -8.9794  -7.9989   2.6580   3.5417   4.5392   4.9030

     occupation numbers 
     1.0000   1.0000   1.0000   1.0000  -0.0000  -0.0000  -0.0000  -0.0000

          k = 0.0781 0.3879 0.0000 ( 14618 PWs)   bands (ev):

   -19.6375 -12.5387  -9.2361  -7.4827   1.8129   4.1761   5.1794   5.5552

     occupation numbers 
[...]
     1.0000   1.0000   1.0000   1.0000  -0.0000  -0.0000  -0.0000  -0.0000

          k = 0.2978 0.6968 0.0000 ( 14495 PWs)   bands (ev):

   -17.2904 -14.1281 -12.5013  -4.8965  -0.9814   7.5739   7.7419   9.1841

     occupation numbers 
     1.0000   1.0000   1.0000   1.0000  -0.0000  -0.0000  -0.0000  -0.0000

          k = 0.2978 0.7330 0.0000 ( 14504 PWs)   bands (ev):

   -17.8014 -13.8766 -11.9013  -5.4355  -0.4406   6.8435   7.4933   8.3855

     occupation numbers 
     1.0000   1.0000   1.0000   1.0000  -0.0000  -0.0000  -0.0000  -0.0000

          k = 0.2978-0.3891 0.0000 ( 14519 PWs)   bands (ev):

   -18.2814 -13.6228 -11.2630  -5.9521   0.0916   6.1595   7.0200   7.6521

     occupation numbers 
     1.0000   1.0000   1.0000   1.0000  -0.0000  -0.0000  -0.0000  -0.0000

          k = 0.2978-0.3529 0.0000 ( 14524 PWs)   bands (ev):

   -18.7258 -13.3478 -10.6251  -6.4385   0.6145   5.5285   6.4741   6.9828

     occupation numbers 
     1.0000   1.0000   1.0000   1.0000  -0.0000  -0.0000  -0.0000  -0.0000

          k = 0.2978-0.3167 0.0000 ( 14538 PWs)   bands (ev):

   -19.1318 -13.0443 -10.0176  -6.8891   1.1288   4.9540   5.9374   6.3786

     occupation numbers 
     1.0000   1.0000   1.0000   1.0000  -0.0000  -0.0000  -0.0000  -0.0000

          k = 0.2978-0.2805 0.0000 ( 14536 PWs)   bands (ev):

   -19.4975 -12.7106  -9.4694  -7.2995   1.6343   4.4387   5.4405   5.8378

     occupation numbers 
     1.0000   1.0000   1.0000   1.0000  -0.0000  -0.0000  -0.0000  -0.0000

          k = 0.2978-0.2443 0.0000 ( 14523 PWs)   bands (ev):

   -19.8214 -12.3479  -9.0095  -7.6663   2.1288   3.9847   4.9959   5.3663

     occupation numbers 
     1.0000   1.0000   1.0000   1.0000  -0.0000  -0.0000  -0.0000  -0.0000

          k = 0.2978-0.2081 0.0000 ( 14521 PWs)   bands (ev):

   -20.1024 -11.9596  -8.6649  -7.9869   2.6062   3.5932   4.6098   4.9602

     occupation numbers 
     1.0000   1.0000   1.0000   1.0000  -0.0000  -0.0000  -0.0000  -0.0000

          k = 0.2978-0.1719 0.0000 ( 14545 PWs)   bands (ev):

   -20.3396 -11.5513  -8.4552  -8.2591   3.0545   3.2650   4.2875   4.6187

     occupation numbers 
     1.0000   1.0000   1.0000   1.0000  -0.0000  -0.0000  -0.0000  -0.0000

          k = 0.3292 0.5701 0.0000 ( 14458 PWs)   bands (ev):

   -15.5041 -15.2842 -13.6741  -3.0752  -2.7755   7.5423  10.0206  10.1648

     occupation numbers 
     1.0000   1.0000   1.0000   1.0039  -0.0039  -0.0000  -0.0000  -0.0000

          k = 0.3292 0.6063 0.0000 ( 14434 PWs)   bands (ev):

   -15.7204 -15.1288 -13.5900  -3.3268  -2.5288   7.5691   9.7818  10.2130

     occupation numbers 
     1.0000   1.0000   1.0000   1.0000  -0.0000  -0.0000  -0.0000  -0.0000

          k = 0.3292 0.6425 0.0000 ( 14463 PWs)   bands (ev):

   -16.2147 -14.8931 -13.2168  -3.8540  -2.0246   7.6916   9.1200  10.1143

     occupation numbers 
     1.0000   1.0000   1.0000   1.0000  -0.0000  -0.0000  -0.0000  -0.0000

          k = 0.3292 0.6787 0.0000 ( 14479 PWs)   bands (ev):

   -16.7318 -14.7121 -12.6782  -4.3823  -1.5317   7.8527   8.3825   9.5328

     occupation numbers 
     1.0000   1.0000   1.0000   1.0000  -0.0000  -0.0000  -0.0000  -0.0000

          k = 0.3292 0.7149 0.0000 ( 14513 PWs)   bands (ev):

   -17.2411 -14.5306 -12.0668  -4.9019  -1.0513   7.6488   7.9060   8.7596

     occupation numbers 
     1.0000   1.0000   1.0000   1.0000  -0.0000  -0.0000  -0.0000  -0.0000

          k = 0.3292 0.7511 0.0000 ( 14520 PWs)   bands (ev):

   -17.7276 -14.3245 -11.4319  -5.4049  -0.5804   6.9482   7.6670   7.9484

     occupation numbers 
     1.0000   1.0000   1.0000   1.0000  -0.0000  -0.0000  -0.0000  -0.0000

          k = 0.3292-0.3710 0.0000 ( 14518 PWs)   bands (ev):

   -18.1837 -14.0853 -10.8044  -5.8843  -0.1150   6.2933   7.1701   7.1994

     occupation numbers 
     1.0000   1.0000   1.0000   1.0000  -0.0000  -0.0000  -0.0000  -0.0000

          k = 0.3292-0.3348 0.0000 ( 14512 PWs)   bands (ev):

   -18.6047 -13.8102 -10.2110  -6.3340   0.3485   5.6907   6.4710   6.6711

     occupation numbers 
     1.0000   1.0000   1.0000   1.0000  -0.0000  -0.0000  -0.0000  -0.0000

          k = 0.3292-0.2986 0.0000 ( 14513 PWs)   bands (ev):

   -18.9874 -13.4997  -9.6788  -6.7488   0.8120   5.1454   5.8882   6.1584

     occupation numbers 
     1.0000   1.0000   1.0000   1.0000  -0.0000  -0.0000  -0.0000  -0.0000

          k = 0.3292-0.2624 0.0000 ( 14502 PWs)   bands (ev):

   -19.3299 -13.1553  -9.2356  -7.1246   1.2753   4.6619   5.4533   5.6881

     occupation numbers 
     1.0000   1.0000   1.0000   1.0000  -0.0000  -0.0000  -0.0000  -0.0000

          k = 0.3292-0.2262 0.0000 ( 14510 PWs)   bands (ev):

   -19.6306 -12.7803  -8.9082  -7.4579   1.7345   4.2426   5.1948   5.2705

     occupation numbers 
     1.0000   1.0000   1.0000   1.0000  -0.0000  -0.0000  -0.0000  -0.0000

          k = 0.3292-0.1900 0.0000 ( 14531 PWs)   bands (ev):

   -19.8884 -12.3794  -8.7159  -7.7461   2.1822   3.8869   4.9104   5.1313

     occupation numbers 
     1.0000   1.0000   1.0000   1.0000  -0.0000  -0.0000  -0.0000  -0.0000

          k = 0.3605 0.6244 0.0000 ( 14450 PWs)   bands (ev):

   -15.8638 -15.2281 -13.2822  -3.6079  -2.2723   7.6655   9.7580   9.8837

     occupation numbers 
     1.0000   1.0000   1.0000   1.0000  -0.0000  -0.0000  -0.0000  -0.0000

          k = 0.3605 0.6606 0.0000 ( 14489 PWs)   bands (ev):

   -16.2233 -15.2414 -12.7597  -4.0204  -1.9118   7.8664   9.1816   9.5048

     occupation numbers 
     1.0000   1.0000   1.0000   1.0000  -0.0000  -0.0000  -0.0000  -0.0000

          k = 0.3605 0.6968 0.0000 ( 14485 PWs)   bands (ev):

   -16.6818 -15.1529 -12.1613  -4.4659  -1.5347   8.0961   8.4703   8.7424

     occupation numbers 
     1.0000   1.0000   1.0000   1.0000  -0.0000  -0.0000  -0.0000  -0.0000

          k = 0.3605 0.7330 0.0000 ( 14504 PWs)   bands (ev):

   -17.1553 -15.0014 -11.5417  -4.9183  -1.1529   7.7467   7.9451   8.1744

     occupation numbers 
     1.0000   1.0000   1.0000   1.0000  -0.0000  -0.0000  -0.0000  -0.0000

          k = 0.3605 0.7692 0.0000 ( 14510 PWs)   bands (ev):

   -17.6135 -14.8006 -10.9315  -5.3637  -0.7653   7.0231   7.2114   7.9148

     occupation numbers 
     1.0000   1.0000   1.0000   1.0000  -0.0000  -0.0000  -0.0000  -0.0000

          k = 0.3605-0.3529 0.0000 ( 14510 PWs)   bands (ev):

   -18.0440 -14.5555 -10.3565  -5.7924  -0.3685   6.3325   6.5693   7.4424

     occupation numbers 
     1.0000   1.0000   1.0000   1.0000  -0.0000  -0.0000  -0.0000  -0.0000

          k = 0.3605-0.3167 0.0000 ( 14510 PWs)   bands (ev):

   -18.4407 -14.2693  -9.8433  -6.1965   0.0395   5.7342   6.0047   6.9290

     occupation numbers 
     1.0000   1.0000   1.0000   1.0000  -0.0000  -0.0000  -0.0000  -0.0000

          k = 0.3605-0.2805 0.0000 ( 14500 PWs)   bands (ev):

   -18.7997 -13.9450  -9.4197  -6.5697   0.4587   5.2614   5.5228   6.4393

     occupation numbers 
     1.0000   1.0000   1.0000   1.0000  -0.0000  -0.0000  -0.0000  -0.0000

          k = 0.3605-0.2443 0.0000 ( 14485 PWs)   bands (ev):

   -19.1187 -13.5857  -9.1118  -6.9068   0.8861   4.8920   5.1779   5.9948

     occupation numbers 
     1.0000   1.0000   1.0000   1.0000  -0.0000  -0.0000  -0.0000  -0.0000

          k = 0.3605-0.2081 0.0000 ( 14487 PWs)   bands (ev):

   -19.3961 -13.1956  -8.9390  -7.2040   1.3150   4.5519   5.0668   5.6041

     occupation numbers 
     1.0000   1.0000   1.0000   1.0000  -0.0000  -0.0000  -0.0000  -0.0000

          k = 0.3919 0.6787 0.0000 ( 14490 PWs)   bands (ev):

   -16.3289 -15.5278 -12.1921  -4.2817  -1.7350   8.1423   8.6902   9.2702

     occupation numbers 
     1.0000   1.0000   1.0000   1.0000  -0.0000  -0.0000  -0.0000  -0.0000

          k = 0.3919 0.7149 0.0000 ( 14494 PWs)   bands (ev):

   -16.6329 -15.5776 -11.5959  -4.6024  -1.5126   7.8651   8.4279   8.6712

     occupation numbers 
     1.0000   1.0000   1.0000   1.0000  -0.0000  -0.0000  -0.0000  -0.0000

          k = 0.3919 0.7511 0.0000 ( 14497 PWs)   bands (ev):

   -17.0417 -15.4614 -11.0074  -4.9556  -1.2531   7.0657   8.0031   8.5109

     occupation numbers 
     1.0000   1.0000   1.0000   1.0000  -0.0000  -0.0000  -0.0000  -0.0000

          k = 0.3919 0.7873 0.0000 ( 14509 PWs)   bands (ev):

   -17.4625 -15.2625 -10.4537  -5.3210  -0.9600   6.3423   7.3685   8.2185

     occupation numbers 
     1.0000   1.0000   1.0000   1.0000  -0.0000  -0.0000  -0.0000  -0.0000

          k = 0.3919-0.3348 0.0000 ( 14518 PWs)   bands (ev):

   -17.8642 -15.0080  -9.9618  -5.6835  -0.6356   5.7343   6.7818   7.7418

     occupation numbers 
     1.0000   1.0000   1.0000   1.0000  -0.0000  -0.0000  -0.0000  -0.0000

          k = 0.3919-0.2986 0.0000 ( 14506 PWs)   bands (ev):

   -18.2351 -14.7079  -9.5594  -6.0314  -0.2826   5.2763   6.2499   7.2443

     occupation numbers 
     1.0000   1.0000   1.0000   1.0000  -0.0000  -0.0000  -0.0000  -0.0000

          k = 0.3919-0.2624 0.0000 ( 14507 PWs)   bands (ev):

   -18.5696 -14.3678  -9.2728  -6.3556   0.0942   4.9970   5.7782   6.7777

     occupation numbers 
     1.0000   1.0000   1.0000   1.0000  -0.0000  -0.0000  -0.0000  -0.0000

          k = 0.3919-0.2262 0.0000 ( 14498 PWs)   bands (ev):

   -18.8648 -13.9920  -9.1212  -6.6491   0.4873   4.9085   5.3785   6.3590

     occupation numbers 
     1.0000   1.0000   1.0000   1.0000  -0.0000  -0.0000  -0.0000  -0.0000

          k = 0.4232 0.7330 0.0000 ( 14492 PWs)   bands (ev):

   -16.6784 -15.8547 -11.0326  -4.7913  -1.4442   7.0575   8.7610   8.8407

     occupation numbers 
     1.0000   1.0000   1.0000   1.0000  -0.0000  -0.0000  -0.0000  -0.0000

          k = 0.4232 0.7692 0.0000 ( 14516 PWs)   bands (ev):

   -16.9283 -15.8602 -10.5024  -5.0247  -1.3173   6.3244   8.2594   8.8734

     occupation numbers 
     1.0000   1.0000   1.0000   1.0000  -0.0000  -0.0000  -0.0000  -0.0000

          k = 0.4232 0.8054 0.0000 ( 14528 PWs)   bands (ev):

   -17.2839 -15.6868 -10.0333  -5.2888  -1.1294   5.7071   7.6570   8.5669

     occupation numbers 
     1.0000   1.0000   1.0000   1.0000  -0.0000  -0.0000  -0.0000  -0.0000

          k = 0.4232-0.3167 0.0000 ( 14516 PWs)   bands (ev):

   -17.6482 -15.4287  -9.6534  -5.5675  -0.8849   5.2407   7.1011   8.0934

     occupation numbers 
     1.0000   1.0000   1.0000   1.0000  -0.0000  -0.0000  -0.0000  -0.0000

          k = 0.4232-0.2805 0.0000 ( 14503 PWs)   bands (ev):

   -17.9901 -15.1161  -9.3891  -5.8460  -0.5920   4.9558   6.5995   7.6140

     occupation numbers 
     1.0000   1.0000   1.0000   1.0000  -0.0000  -0.0000  -0.0000  -0.0000

          k = 0.4232-0.2443 0.0000 ( 14506 PWs)   bands (ev):

   -18.2989 -14.7602  -9.2599  -6.1119  -0.2614   4.8732   6.1566   7.1710

     occupation numbers 
     1.0000   1.0000   1.0000   1.0000  -0.0000  -0.0000  -0.0000  -0.0000

          k = 0.4545 0.7873 0.0000 ( 14518 PWs)   bands (ev):

   -16.9117 -16.0920 -10.0572  -5.1330  -1.3186   5.6971   8.5336   8.6309

     occupation numbers 
     1.0000   1.0000   1.0000   1.0000  -0.0000  -0.0000  -0.0000  -0.0000

          k = 0.4545 0.8235 0.0000 ( 14532 PWs)   bands (ev):

   -17.1062 -16.0381  -9.7006  -5.2799  -1.2427   5.2207   8.0069   8.9622

     occupation numbers 
     1.0000   1.0000   1.0000   1.0000  -0.0000  -0.0000  -0.0000  -0.0000

          k = 0.4545-0.2986 0.0000 ( 14504 PWs)   bands (ev):

   -17.4056 -15.8029  -9.4594  -5.4568  -1.0891   4.9263   7.4828   8.4926

     occupation numbers 
     1.0000   1.0000   1.0000   1.0000  -0.0000  -0.0000  -0.0000  -0.0000

          k = 0.4545-0.2624 0.0000 ( 14520 PWs)   bands (ev):

   -17.7103 -15.4852  -9.3532  -5.6503  -0.8671   4.8355   7.0121   8.0339

     occupation numbers 
     1.0000   1.0000   1.0000   1.0000  -0.0000  -0.0000  -0.0000  -0.0000

          k = 0.4859 0.8416 0.0000 ( 14500 PWs)   bands (ev):

   -17.0283 -16.2144  -9.4830  -5.3044  -1.2778   4.9160   8.3753   8.4609

     occupation numbers 
     1.0000   1.0000   1.0000   1.0000  -0.0000  -0.0000  -0.0000  -0.0000

          k = 0.4859-0.2805 0.0000 ( 14478 PWs)   bands (ev):

   -17.1657 -16.0985  -9.4001  -5.3652  -1.2251   4.8152   7.9219   8.8836

     occupation numbers 
     1.0000   1.0000   1.0000   1.0000  -0.0000  -0.0000  -0.0000  -0.0000

     the Fermi energy is    -2.9254 ev

!    total energy              =     -24.12350114 Ry
     estimated scf accuracy    <          7.0E-12 Ry
     smearing contrib. (-TS)   =       0.00000037 Ry
     internal energy E=F+TS    =     -24.12350152 Ry

     The total energy is F=E-TS. E is the sum of the following terms:
     one-electron contribution =    -289.37969066 Ry
     hartree contribution      =     145.84938972 Ry
     xc contribution           =      -8.56932865 Ry
     ewald contribution        =     127.97612807 Ry

     convergence has been achieved in   7 iterations

     Forces acting on atoms (cartesian axes, Ry/au):

     atom    1 type  1   force =     0.00000000   -0.00000000    0.00000000
     atom    2 type  1   force =    -0.00000000    0.00000000    0.00000000
     The non-local contrib.  to forces
     atom    1 type  1   force =     0.00000000   -0.00000000    0.00000000
     atom    2 type  1   force =     0.00000000    0.00000000    0.00000000
     The ionic contribution  to forces
     atom    1 type  1   force =     0.00000000   -0.00000000    0.00000000
     atom    2 type  1   force =    -0.00000000    0.00000000    0.00000000
     The local contribution  to forces
     atom    1 type  1   force =     0.00000000    0.00000000    0.00000000
     atom    2 type  1   force =    -0.00000000   -0.00000000    0.00000000
     The core correction contribution to forces
     atom    1 type  1   force =    -0.00000000    0.00000000    0.00000000
     atom    2 type  1   force =     0.00000000   -0.00000000    0.00000000
     The Hubbard contrib.    to forces
     atom    1 type  1   force =     0.00000000    0.00000000    0.00000000
     atom    2 type  1   force =     0.00000000    0.00000000    0.00000000
     The SCF correction term to forces
     atom    1 type  1   force =    -0.00000000   -0.00000000    0.00000000
     atom    2 type  1   force =     0.00000000    0.00000000   -0.00000000

     Total force =     0.000000     Total SCF correction =     0.000000


     Computing stress (Cartesian axis) and pressure

          total   stress  (Ry/bohr**3)                   (kbar)     P=        0.01
   0.00000007   0.00000000   0.00000000            0.01        0.00        0.00
   0.00000000   0.00000007   0.00000000            0.00        0.01        0.00
   0.00000000   0.00000000  -0.00000003            0.00        0.00       -0.00

     kinetic stress (kbar)   1878.39      0.00      0.00
                                0.00   1878.39      0.00
                               -0.00      0.00   2057.60

     local   stress (kbar) -51299.88      0.00     -0.00
                                0.00 -51299.88      0.00
                               -0.00      0.00  51884.98

     nonloc. stress (kbar)   -222.30     -0.00     -0.00
                               -0.00   -222.30      0.00
                                0.00      0.00   -185.72

     hartree stress (kbar)  24793.37     -0.00      0.00
                               -0.00  24793.37     -0.00
                                0.00     -0.00 -24655.00

     exc-cor stress (kbar)   -145.50      0.00      0.00
                                0.00   -145.50      0.00
                                0.00      0.00   -145.50

     corecor stress (kbar)   -282.77      0.00     -0.00
                                0.00   -282.77      0.00
                               -0.00      0.00   -275.41

     ewald   stress (kbar)  25278.71     -0.00      0.00
                               -0.00  25278.71      0.00
                                0.00      0.00 -28680.96

     hubbard stress (kbar)      0.00      0.00      0.00
                                0.00      0.00      0.00
                                0.00      0.00      0.00

     DFT-D   stress (kbar)      0.00      0.00      0.00
                                0.00      0.00      0.00
                                0.00      0.00      0.00

     XDM     stress (kbar)      0.00      0.00      0.00
                                0.00      0.00      0.00
                                0.00      0.00      0.00

     dft-nl  stress (kbar)      0.00      0.00      0.00
                                0.00      0.00      0.00
                                0.00      0.00      0.00

     TS-vdW  stress (kbar)      0.00      0.00      0.00
                                0.00      0.00      0.00
                                0.00      0.00      0.00


                                0.00      0.00      0.00
                                0.00      0.00      0.00


                                0.00      0.00      0.00


     Writing all to output data dir ./graphene.save/
 
     init_run     :      3.96s CPU      4.11s WALL (       2 calls)
     electrons    :     31.16s CPU     31.50s WALL (       7 calls)
     update_pot   :     11.72s CPU     11.76s WALL (       5 calls)
     forces       :      8.55s CPU      8.58s WALL (       7 calls)
     stress       :     25.67s CPU     25.73s WALL (       7 calls)

     Called by init_run:
     wfcinit      :      0.19s CPU      0.21s WALL (       2 calls)
     wfcinit:atom :      0.00s CPU      0.00s WALL (       2 calls)
     wfcinit:wfcr :      0.17s CPU      0.19s WALL (       2 calls)
     potinit      :      1.54s CPU      1.56s WALL (       2 calls)
     hinit0       :      2.13s CPU      2.21s WALL (       2 calls)

     Called by electrons:
     c_bands      :     21.21s CPU     21.31s WALL (      62 calls)
     sum_band     :      5.71s CPU      5.74s WALL (      62 calls)
     v_of_rho     :      1.32s CPU      1.33s WALL (      67 calls)
     v_h          :      0.52s CPU      0.52s WALL (      67 calls)
     v_xc         :      0.95s CPU      0.96s WALL (      81 calls)
     mix_rho      :      1.02s CPU      1.10s WALL (      62 calls)

     Called by c_bands:
     init_us_2    :      0.26s CPU      0.27s WALL (     126 calls)
     init_us_2:cp :      0.26s CPU      0.27s WALL (     126 calls)
     cegterg      :     16.51s CPU     16.59s WALL (      62 calls)

     Called by sum_band:
     sum_band:wei :      0.08s CPU      0.08s WALL (      62 calls)
     sum_band:loo :      3.52s CPU      3.53s WALL (      62 calls)
     sum_band:buf :      0.00s CPU      0.00s WALL (      62 calls)
     sum_band:ini :      0.13s CPU      0.13s WALL (      62 calls)

     Called by *egterg:
     cdiaghg      :      0.04s CPU      0.06s WALL (     273 calls)
     cegterg:over :      0.60s CPU      0.60s WALL (     218 calls)
     cegterg:upda :      0.28s CPU      0.28s WALL (     218 calls)
     cegterg:last :      0.29s CPU      0.29s WALL (     141 calls)
     h_psi        :     15.15s CPU     15.23s WALL (     282 calls)
     g_psi        :      0.05s CPU      0.06s WALL (     218 calls)

     Called by h_psi:
     h_psi:calbec :      0.31s CPU      0.31s WALL (     282 calls)
     vloc_psi     :     14.40s CPU     14.46s WALL (     282 calls)
     add_vuspsi   :      0.32s CPU      0.32s WALL (     282 calls)

     General routines
     calbec       :      0.35s CPU      0.36s WALL (     317 calls)
     fft          :      0.70s CPU      0.77s WALL (     257 calls)
     ffts         :      0.24s CPU      0.24s WALL (      62 calls)
     fftw         :     12.16s CPU     12.21s WALL (    3306 calls)
 
     Parallel routines
 
     PWSCF        :   1m21.41s CPU   1m22.44s WALL

 
   This run was terminated on:  14: 9: 5   9Jun2022            

=------------------------------------------------------------------------------=
   JOB DONE.
=------------------------------------------------------------------------------=
TACC:  Shutdown complete. Exiting. 
