
     Program BANDS v.6.4.1 starts on 31Jul2021 at 23: 9:21 

     This program is part of the open-source Quantum ESPRESSO suite
     for quantum simulation of materials; please cite
         "P. Giannozzi et al., J. Phys.:Condens. Matter 21 395502 (2009);
         "P. Giannozzi et al., J. Phys.:Condens. Matter 29 465901 (2017);
          URL http://www.quantum-espresso.org", 
     in publications or presentations arising from this work. More details at
     http://www.quantum-espresso.org/quote

     Parallel version (MPI & OpenMP), running on      12 processor cores
     Number of MPI processes:                 1
     Threads/MPI process:                    12

     MPI processes distributed on     1 nodes

     Reading data from directory:
     ./\silicon.save\

     IMPORTANT: XC functional enforced from input :
     Exchange-correlation      = PZ ( 1  1  0  0 0 0)
     Any further DFT definition will be discarded
     Please, verify this is what you really want


     G-vector sticks info
     --------------------
     sticks:   dense  smooth     PW     G-vecs:    dense   smooth      PW
     Sum         367     367    121                 4621     4621     869

     high-symmetry point:  0.5000 0.5000 0.5000   x coordinate   0.0000
     high-symmetry point:  0.0000 0.0000 0.0000   x coordinate   0.8660
     high-symmetry point:  1.0000 0.0000 0.0000   x coordinate   1.8660

     Plottable bands (eV) written to file bands.gnu
     Bands written to file bands

 **************************************************************************

                    xk=(   0.50000,   0.50000,   0.50000  )

     zone border point and non-symmorphic group 
     symmetry decomposition not available

 **************************************************************************

 **************************************************************************

                    xk=(   0.47500,   0.47500,   0.47500  )

     point group C_3v (3m)  
     there are  3 classes
     the character table:

       E     2C3   3s_v 
A_1    1.00  1.00  1.00
A_2    1.00  1.00 -1.00
E      2.00 -1.00  0.00

     the symmetry operations in each class and the name of the first element:

     E        1
                                                                 
     2C3      2    3
                                                                 
     3s_v     4    5    6
                                                                 

     Band symmetry, C_3v (3m)   point group:

     e(  1 -  1) =     -3.61035  eV     1   --> A_1  L_1       
     e(  2 -  2) =     -0.91199  eV     1   --> A_1  L_1       
     e(  3 -  4) =      4.79659  eV     2   --> E    L_3       
     e(  5 -  5) =      7.47351  eV     1   --> A_1  L_1       
     e(  6 -  7) =      9.33564  eV     2   --> E    L_3       
     e(  8 -  8) =     13.55460  eV     1   --> A_1  L_1       

 **************************************************************************

 **************************************************************************

                    xk=(   0.45000,   0.45000,   0.45000  )

     Band symmetry, C_3v (3m)   point group:

     e(  1 -  1) =     -3.71002  eV     1   --> A_1  L_1       
     e(  2 -  2) =     -0.76612  eV     1   --> A_1  L_1       
     e(  3 -  4) =      4.81003  eV     2   --> E    L_3       
     e(  5 -  5) =      7.48887  eV     1   --> A_1  L_1       
     e(  6 -  7) =      9.35058  eV     2   --> E    L_3       
     e(  8 -  8) =     13.57813  eV     1   --> A_1  L_1       

 **************************************************************************

 **************************************************************************

                    xk=(   0.42500,   0.42500,   0.42500  )

     Band symmetry, C_3v (3m)   point group:

     e(  1 -  1) =     -3.85571  eV     1   --> A_1  L_1       
     e(  2 -  2) =     -0.54395  eV     1   --> A_1  L_1       
     e(  3 -  4) =      4.83239  eV     2   --> E    L_3       
     e(  5 -  5) =      7.51438  eV     1   --> A_1  L_1       
     e(  6 -  7) =      9.37423  eV     2   --> E    L_3       
     e(  8 -  8) =     13.61440  eV     1   --> A_1  L_1       

 **************************************************************************

 **************************************************************************

                    xk=(   0.40000,   0.40000,   0.40000  )

     Band symmetry, C_3v (3m)   point group:

     e(  1 -  1) =     -4.02910  eV     1   --> A_1  L_1       
     e(  2 -  2) =     -0.26343  eV     1   --> A_1  L_1       
     e(  3 -  4) =      4.86368  eV     2   --> E    L_3       
     e(  5 -  5) =      7.54998  eV     1   --> A_1  L_1       
     e(  6 -  7) =      9.40445  eV     2   --> E    L_3       
     e(  8 -  8) =     13.65915  eV     1   --> A_1  L_1       

 **************************************************************************

 **************************************************************************

                    xk=(   0.37500,   0.37500,   0.37500  )

     Band symmetry, C_3v (3m)   point group:

     e(  1 -  1) =     -4.21602  eV     1   --> A_1  L_1       
     e(  2 -  2) =      0.06108  eV     1   --> A_1  L_1       
     e(  3 -  4) =      4.90415  eV     2   --> E    L_3       
     e(  5 -  5) =      7.59583  eV     1   --> A_1  L_1       
     e(  6 -  7) =      9.43939  eV     2   --> E    L_3       
     e(  8 -  8) =     13.70085  eV     1   --> A_1  L_1       

 **************************************************************************

 **************************************************************************

                    xk=(   0.35000,   0.35000,   0.35000  )

     Band symmetry, C_3v (3m)   point group:

     e(  1 -  1) =     -4.40680  eV     1   --> A_1  L_1       
     e(  2 -  2) =      0.41913  eV     1   --> A_1  L_1       
     e(  3 -  4) =      4.95305  eV     2   --> E    L_3       
     e(  5 -  5) =      7.65107  eV     1   --> A_1  L_1       
     e(  6 -  7) =      9.47318  eV     2   --> E    L_3       
     e(  8 -  8) =     13.71374  eV     1   --> A_1  L_1       

 **************************************************************************

 **************************************************************************

                    xk=(   0.32500,   0.32500,   0.32500  )

     Band symmetry, C_3v (3m)   point group:

     e(  1 -  1) =     -4.59511  eV     1   --> A_1  L_1       
     e(  2 -  2) =      0.80404  eV     1   --> A_1  L_1       
     e(  3 -  4) =      5.01050  eV     2   --> E    L_3       
     e(  5 -  5) =      7.71583  eV     1   --> A_1  L_1       
     e(  6 -  7) =      9.50150  eV     2   --> E    L_3       
     e(  8 -  8) =     13.64590  eV     1   --> A_1  L_1       

 **************************************************************************

 **************************************************************************

                    xk=(   0.30000,   0.30000,   0.30000  )

     Band symmetry, C_3v (3m)   point group:

     e(  1 -  1) =     -4.77665  eV     1   --> A_1  L_1       
     e(  2 -  2) =      1.21085  eV     1   --> A_1  L_1       
     e(  3 -  4) =      5.07623  eV     2   --> E    L_3       
     e(  5 -  5) =      7.78962  eV     1   --> A_1  L_1       
     e(  6 -  7) =      9.51766  eV     2   --> E    L_3       
     e(  8 -  8) =     13.44044  eV     1   --> A_1  L_1       

 **************************************************************************

 **************************************************************************

                    xk=(   0.27500,   0.27500,   0.27500  )

     Band symmetry, C_3v (3m)   point group:

     e(  1 -  1) =     -4.94864  eV     1   --> A_1  L_1       
     e(  2 -  2) =      1.63536  eV     1   --> A_1  L_1       
     e(  3 -  4) =      5.14984  eV     2   --> E    L_3       
     e(  5 -  5) =      7.87113  eV     1   --> A_1  L_1       
     e(  6 -  7) =      9.51474  eV     2   --> E    L_3       
     e(  8 -  8) =     13.11518  eV     1   --> A_1  L_1       

 **************************************************************************

 **************************************************************************

                    xk=(   0.25000,   0.25000,   0.25000  )

     Band symmetry, C_3v (3m)   point group:

     e(  1 -  1) =     -5.10915  eV     1   --> A_1  L_1       
     e(  2 -  2) =      2.07553  eV     1   --> A_1  L_1       
     e(  3 -  4) =      5.23073  eV     2   --> E    L_3       
     e(  5 -  5) =      7.95997  eV     1   --> A_1  L_1       
     e(  6 -  7) =      9.48652  eV     2   --> E    L_3       
     e(  8 -  8) =     12.72634  eV     1   --> A_1  L_1       

 **************************************************************************

 **************************************************************************

                    xk=(   0.22500,   0.22500,   0.22500  )

     Band symmetry, C_3v (3m)   point group:

     e(  1 -  1) =     -5.25680  eV     1   --> A_1  L_1       
     e(  2 -  2) =      2.52812  eV     1   --> A_1  L_1       
     e(  3 -  4) =      5.31806  eV     2   --> E    L_3       
     e(  5 -  5) =      8.05477  eV     1   --> A_1  L_1       
     e(  6 -  7) =      9.42907  eV     2   --> E    L_3       
     e(  8 -  8) =     12.30818  eV     1   --> A_1  L_1       

 **************************************************************************

 **************************************************************************

                    xk=(   0.20000,   0.20000,   0.20000  )

     Band symmetry, C_3v (3m)   point group:

     e(  1 -  1) =     -5.39063  eV     1   --> A_1  L_1       
     e(  2 -  2) =      2.99023  eV     1   --> A_1  L_1       
     e(  3 -  4) =      5.41069  eV     2   --> E    L_3       
     e(  5 -  5) =      8.15386  eV     1   --> A_1  L_1       
     e(  6 -  7) =      9.34267  eV     2   --> E    L_3       
     e(  8 -  8) =     11.87570  eV     1   --> A_1  L_1       

 **************************************************************************

 **************************************************************************

                    xk=(   0.17500,   0.17500,   0.17500  )

     Band symmetry, C_3v (3m)   point group:

     e(  1 -  1) =     -5.50993  eV     1   --> A_1  L_1       
     e(  2 -  2) =      3.45841  eV     1   --> A_1  L_1       
     e(  3 -  4) =      5.50685  eV     2   --> E    L_3       
     e(  5 -  5) =      8.25446  eV     1   --> A_1  L_1       
     e(  6 -  7) =      9.23129  eV     2   --> E    L_3       
     e(  8 -  8) =     11.43626  eV     1   --> A_1  L_1       

 **************************************************************************

 **************************************************************************

                    xk=(   0.15000,   0.15000,   0.15000  )

     Band symmetry, C_3v (3m)   point group:

     e(  1 -  1) =     -5.61413  eV     1   --> A_1  L_1       
     e(  2 -  2) =      3.92834  eV     1   --> A_1  L_1       
     e(  3 -  4) =      5.60436  eV     2   --> E    L_3       
     e(  5 -  5) =      8.35341  eV     1   --> A_1  L_1       
     e(  6 -  7) =      9.10317  eV     2   --> E    L_3       
     e(  8 -  8) =     10.99539  eV     1   --> A_1  L_1       

 **************************************************************************

 **************************************************************************

                    xk=(   0.12500,   0.12500,   0.12500  )

     Band symmetry, C_3v (3m)   point group:

     e(  1 -  1) =     -5.70284  eV     1   --> A_1  L_1       
     e(  2 -  2) =      4.39377  eV     1   --> A_1  L_1       
     e(  3 -  4) =      5.70015  eV     2   --> E    L_3       
     e(  5 -  5) =      8.44585  eV     1   --> A_1  L_1       
     e(  6 -  7) =      8.96823  eV     2   --> E    L_3       
     e(  8 -  8) =     10.55994  eV     1   --> A_1  L_1       

 **************************************************************************

 **************************************************************************

                    xk=(   0.10000,   0.10000,   0.10000  )

     Band symmetry, C_3v (3m)   point group:

     e(  1 -  1) =     -5.77578  eV     1   --> A_1  L_1       
     e(  2 -  2) =      4.84511  eV     1   --> A_1  L_1       
     e(  3 -  4) =      5.79025  eV     2   --> E    L_3       
     e(  5 -  5) =      8.52484  eV     1   --> A_1  L_1       
     e(  6 -  7) =      8.83709  eV     2   --> E    L_3       
     e(  8 -  8) =     10.14135  eV     1   --> A_1  L_1       

 **************************************************************************

 **************************************************************************

                    xk=(   0.07500,   0.07500,   0.07500  )

     Band symmetry, C_3v (3m)   point group:

     e(  1 -  1) =     -5.83271  eV     1   --> A_1  L_1       
     e(  2 -  2) =      5.26656  eV     1   --> A_1  L_1       
     e(  3 -  4) =      5.86995  eV     2   --> E    L_3       
     e(  5 -  5) =      8.58021  eV     1   --> A_1  L_1       
     e(  6 -  7) =      8.72131  eV     2   --> E    L_3       
     e(  8 -  8) =      9.76080  eV     1   --> A_1  L_1       

 **************************************************************************

 **************************************************************************

                    xk=(   0.05000,   0.05000,   0.05000  )

     Band symmetry, C_3v (3m)   point group:

     e(  1 -  1) =     -5.87348  eV     1   --> A_1  L_1       
     e(  2 -  2) =      5.63046  eV     1   --> A_1  L_1       
     e(  3 -  4) =      5.93301  eV     2   --> E    L_3       
     e(  5 -  5) =      8.59655  eV     1   --> A_1  L_1       
     e(  6 -  7) =      8.62885  eV     2   --> E    L_3       
     e(  8 -  8) =      9.45465  eV     1   --> A_1  L_1       

 **************************************************************************

 **************************************************************************

                    xk=(   0.02500,   0.02500,   0.02500  )

     Band symmetry, C_3v (3m)   point group:

     e(  1 -  1) =     -5.89797  eV     1   --> A_1  L_1       
     e(  2 -  2) =      5.89085  eV     1   --> A_1  L_1       
     e(  3 -  4) =      5.97409  eV     2   --> E    L_3       
     e(  5 -  6) =      8.56945  eV     2   --> E    L_3       
     e(  7 -  7) =      8.57163  eV     1   --> A_1  L_1       
     e(  8 -  8) =      9.26715  eV     1   --> A_1  L_1       

 **************************************************************************

 **************************************************************************

                    xk=(   0.00000,   0.00000,   0.00000  )

     point group O_h (m-3m) 
     there are 10 classes
     the character table:

       E     8C3   3C2   6C4   6C2'  i     8S6   3s_h  6S4   6s_d 
A_1g   1.00  1.00  1.00  1.00  1.00  1.00  1.00  1.00  1.00  1.00
A_2g   1.00  1.00  1.00 -1.00 -1.00  1.00  1.00  1.00 -1.00 -1.00
E_g    2.00 -1.00  2.00  0.00  0.00  2.00 -1.00  2.00  0.00  0.00
T_1g   3.00  0.00 -1.00  1.00 -1.00  3.00  0.00 -1.00  1.00 -1.00
T_2g   3.00  0.00 -1.00 -1.00  1.00  3.00  0.00 -1.00 -1.00  1.00
A_1u   1.00  1.00  1.00  1.00  1.00 -1.00 -1.00 -1.00 -1.00 -1.00
A_2u   1.00  1.00  1.00 -1.00 -1.00 -1.00 -1.00 -1.00  1.00  1.00
E_u    2.00 -1.00  2.00  0.00  0.00 -2.00  1.00 -2.00  0.00  0.00
T_1u   3.00  0.00 -1.00  1.00 -1.00 -3.00  0.00  1.00 -1.00  1.00
T_2u   3.00  0.00 -1.00 -1.00  1.00 -3.00  0.00  1.00  1.00 -1.00

     the symmetry operations in each class and the name of the first element:

     E        1
                                                                 
     8C3     17   19   20   18   24   21   22   23
                                                                 
     3C2      2    4    3
                                                                 
     6C4      7    8   15   16   12   11
                                                                 
     6C2'     5    6   14   13   10    9
                                                                 
     i       25
                                                                 
     8S6     41   43   44   42   48   45   46   47
                                                                 
     3s_h    26   28   27
                                                                 
     6S4     31   32   39   40   36   35
                                                                 
     6s_d    29   30   38   37   34   33
                                                                 

     Band symmetry, O_h (m-3m)  point group:

     e(  1 -  1) =     -5.90611  eV     1   --> A_1g G_1   G_1+
     e(  2 -  4) =      5.98876  eV     3   --> T_2g G_25' G_5+
     e(  5 -  7) =      8.54937  eV     3   --> T_1u G_15  G_4-
     e(  8 -  8) =      9.20888  eV     1   --> A_2u G_2'  G_2-

 **************************************************************************

 **************************************************************************

                    xk=(   0.05000,   0.00000,   0.00000  )

     point group C_4v (4mm) 
     there are  5 classes
     the character table:

       E     2C4   C2    2s_v  2s_d 
A_1    1.00  1.00  1.00  1.00  1.00
A_2    1.00  1.00  1.00 -1.00 -1.00
B_1    1.00 -1.00  1.00  1.00 -1.00
B_2    1.00 -1.00  1.00 -1.00  1.00
E      2.00  0.00 -2.00  0.00  0.00

     the symmetry operations in each class and the name of the first element:

     E        1
                                                                 
     2C4      3    4
                                                                 
     C2       2
                                                                 
     2s_v     5    6
                                                                 
     2s_d     7    8
                                                                 

     Band symmetry, C_4v (4mm)  point group:

     e(  1 -  1) =     -5.89525  eV     1   --> A_1  G_1 D_1   
     e(  2 -  2) =      5.91306  eV     1   --> B_2  G_4 D_2'  
     e(  3 -  4) =      5.94147  eV     2   --> E    G_5 D_5   
     e(  5 -  5) =      8.52047  eV     1   --> A_1  G_1 D_1   
     e(  6 -  7) =      8.60823  eV     2   --> E    G_5 D_5   
     e(  8 -  8) =      9.28162  eV     1   --> B_2  G_4 D_2'  

 **************************************************************************

 **************************************************************************

                    xk=(   0.10000,   0.00000,   0.00000  )

     Band symmetry, C_4v (4mm)  point group:

     e(  1 -  1) =     -5.86257  eV     1   --> A_1  G_1 D_1   
     e(  2 -  2) =      5.70654  eV     1   --> B_2  G_4 D_2'  
     e(  3 -  4) =      5.81353  eV     2   --> E    G_5 D_5   
     e(  5 -  5) =      8.43912  eV     1   --> A_1  G_1 D_1   
     e(  6 -  7) =      8.77483  eV     2   --> E    G_5 D_5   
     e(  8 -  8) =      9.47838  eV     1   --> B_2  G_4 D_2'  

 **************************************************************************

 **************************************************************************

                    xk=(   0.15000,   0.00000,   0.00000  )

     Band symmetry, C_4v (4mm)  point group:

     e(  1 -  1) =     -5.80815  eV     1   --> A_1  G_1 D_1   
     e(  2 -  2) =      5.40738  eV     1   --> B_2  G_4 D_2'  
     e(  3 -  4) =      5.62975  eV     2   --> E    G_5 D_5   
     e(  5 -  5) =      8.31332  eV     1   --> A_1  G_1 D_1   
     e(  6 -  7) =      9.02283  eV     2   --> E    G_5 D_5   
     e(  8 -  8) =      9.74976  eV     1   --> B_2  G_4 D_2'  

 **************************************************************************

 **************************************************************************

                    xk=(   0.20000,   0.00000,   0.00000  )

     Band symmetry, C_4v (4mm)  point group:

     e(  1 -  1) =     -5.73204  eV     1   --> A_1  G_1 D_1   
     e(  2 -  2) =      5.04991  eV     1   --> B_2  G_4 D_2'  
     e(  3 -  4) =      5.41463  eV     2   --> E    G_5 D_5   
     e(  5 -  5) =      8.15666  eV     1   --> A_1  G_1 D_1   
     e(  6 -  7) =      9.32899  eV     2   --> E    G_5 D_5   
     e(  8 -  8) =     10.03523  eV     1   --> B_2  G_4 D_2'  

 **************************************************************************

 **************************************************************************

                    xk=(   0.25000,   0.00000,   0.00000  )

     Band symmetry, C_4v (4mm)  point group:

     e(  1 -  1) =     -5.63437  eV     1   --> A_1  G_1 D_1   
     e(  2 -  2) =      4.65704  eV     1   --> B_2  G_4 D_2'  
     e(  3 -  4) =      5.18535  eV     2   --> E    G_5 D_5   
     e(  5 -  5) =      7.97989  eV     1   --> A_1  G_1 D_1   
     e(  6 -  7) =      9.67468  eV     2   --> E    G_5 D_5   
     e(  8 -  8) =     10.25315  eV     1   --> B_2  G_4 D_2'  

 **************************************************************************

 **************************************************************************

                    xk=(   0.30000,   0.00000,   0.00000  )

     Band symmetry, C_4v (4mm)  point group:

     e(  1 -  1) =     -5.51527  eV     1   --> A_1  G_1 D_1   
     e(  2 -  2) =      4.24259  eV     1   --> B_2  G_4 D_2'  
     e(  3 -  4) =      4.95302  eV     2   --> E    G_5 D_5   
     e(  5 -  5) =      7.79328  eV     1   --> A_1  G_1 D_1   
     e(  6 -  7) =     10.04806  eV     2   --> E    G_5 D_5   
     e(  8 -  8) =     10.29845  eV     1   --> B_2  G_4 D_2'  

 **************************************************************************

 **************************************************************************

                    xk=(   0.35000,   0.00000,   0.00000  )

     Band symmetry, C_4v (4mm)  point group:

     e(  1 -  1) =     -5.37492  eV     1   --> A_1  G_1 D_1   
     e(  2 -  2) =      3.81481  eV     1   --> B_2  G_4 D_2'  
     e(  3 -  4) =      4.72486  eV     2   --> E    G_5 D_5   
     e(  5 -  5) =      7.60459  eV     1   --> A_1  G_1 D_1   
     e(  6 -  6) =     10.13086  eV     1   --> B_2  G_4 D_2'  
     e(  7 -  8) =     10.44184  eV     2   --> E    G_5 D_5   

 **************************************************************************

 **************************************************************************

                    xk=(   0.40000,   0.00000,   0.00000  )

     Band symmetry, C_4v (4mm)  point group:

     e(  1 -  1) =     -5.21351  eV     1   --> A_1  G_1 D_1   
     e(  2 -  2) =      3.37869  eV     1   --> B_2  G_4 D_2'  
     e(  3 -  4) =      4.50548  eV     2   --> E    G_5 D_5   
     e(  5 -  5) =      7.42100  eV     1   --> A_1  G_1 D_1   
     e(  6 -  6) =      9.82350  eV     1   --> B_2  G_4 D_2'  
     e(  7 -  8) =     10.85096  eV     2   --> E    G_5 D_5   

 **************************************************************************

 **************************************************************************

                    xk=(   0.45000,   0.00000,   0.00000  )

     Band symmetry, C_4v (4mm)  point group:

     e(  1 -  1) =     -5.03130  eV     1   --> A_1  G_1 D_1   
     e(  2 -  2) =      2.93739  eV     1   --> B_2  G_4 D_2'  
     e(  3 -  4) =      4.29790  eV     2   --> E    G_5 D_5   
     e(  5 -  5) =      7.24700  eV     1   --> A_1  G_1 D_1   
     e(  6 -  6) =      9.45872  eV     1   --> B_2  G_4 D_2'  
     e(  7 -  8) =     11.27160  eV     2   --> E    G_5 D_5   

 **************************************************************************

 **************************************************************************

                    xk=(   0.50000,   0.00000,   0.00000  )

     Band symmetry, C_4v (4mm)  point group:

     e(  1 -  1) =     -4.82858  eV     1   --> A_1  G_1 D_1   
     e(  2 -  2) =      2.49312  eV     1   --> B_2  G_4 D_2'  
     e(  3 -  4) =      4.10434  eV     2   --> E    G_5 D_5   
     e(  5 -  5) =      7.08641  eV     1   --> A_1  G_1 D_1   
     e(  6 -  6) =      9.08155  eV     1   --> B_2  G_4 D_2'  
     e(  7 -  8) =     11.70191  eV     2   --> E    G_5 D_5   

 **************************************************************************

 **************************************************************************

                    xk=(   0.55000,   0.00000,   0.00000  )

     Band symmetry, C_4v (4mm)  point group:

     e(  1 -  1) =     -4.60563  eV     1   --> A_1  G_1 D_1   
     e(  2 -  2) =      2.04778  eV     1   --> B_2  G_4 D_2'  
     e(  3 -  4) =      3.92639  eV     2   --> E    G_5 D_5   
     e(  5 -  5) =      6.94215  eV     1   --> A_1  G_1 D_1   
     e(  6 -  6) =      8.71467  eV     1   --> B_2  G_4 D_2'  
     e(  7 -  8) =     12.14053  eV     2   --> E    G_5 D_5   

 **************************************************************************

 **************************************************************************

                    xk=(   0.60000,   0.00000,   0.00000  )

     Band symmetry, C_4v (4mm)  point group:

     e(  1 -  1) =     -4.36297  eV     1   --> A_1  G_1 D_1   
     e(  2 -  2) =      1.60247  eV     1   --> B_2  G_4 D_2'  
     e(  3 -  4) =      3.76500  eV     2   --> E    G_5 D_5   
     e(  5 -  5) =      6.81655  eV     1   --> A_1  G_1 D_1   
     e(  6 -  6) =      8.36710  eV     1   --> B_2  G_4 D_2'  
     e(  7 -  8) =     12.58512  eV     2   --> E    G_5 D_5   

 **************************************************************************

 **************************************************************************

                    xk=(   0.65000,   0.00000,   0.00000  )

     Band symmetry, C_4v (4mm)  point group:

     e(  1 -  1) =     -4.10097  eV     1   --> A_1  G_1 D_1   
     e(  2 -  2) =      1.15874  eV     1   --> B_2  G_4 D_2'  
     e(  3 -  4) =      3.62104  eV     2   --> E    G_5 D_5   
     e(  5 -  5) =      6.71122  eV     1   --> A_1  G_1 D_1   
     e(  6 -  6) =      8.04568  eV     1   --> B_2  G_4 D_2'  
     e(  7 -  8) =     13.03379  eV     2   --> E    G_5 D_5   

 **************************************************************************

 **************************************************************************

                    xk=(   0.70000,   0.00000,   0.00000  )

     Band symmetry, C_4v (4mm)  point group:

     e(  1 -  1) =     -3.82015  eV     1   --> A_1  G_1 D_1   
     e(  2 -  2) =      0.71817  eV     1   --> B_2  G_4 D_2'  
     e(  3 -  4) =      3.49531  eV     2   --> E    G_5 D_5   
     e(  5 -  5) =      6.62830  eV     1   --> A_1  G_1 D_1   
     e(  6 -  6) =      7.75379  eV     1   --> B_2  G_4 D_2'  
     e(  7 -  8) =     13.48900  eV     2   --> E    G_5 D_5   

 **************************************************************************

 **************************************************************************

                    xk=(   0.75000,   0.00000,   0.00000  )

     Band symmetry, C_4v (4mm)  point group:

     e(  1 -  1) =     -3.52104  eV     1   --> A_1  G_1 D_1   
     e(  2 -  2) =      0.28237  eV     1   --> B_2  G_4 D_2'  
     e(  3 -  4) =      3.38864  eV     2   --> E    G_5 D_5   
     e(  5 -  5) =      6.56909  eV     1   --> A_1  G_1 D_1   
     e(  6 -  6) =      7.49298  eV     1   --> B_2  G_4 D_2'  
     e(  7 -  8) =     13.94882  eV     2   --> E    G_5 D_5   

 **************************************************************************

 **************************************************************************

                    xk=(   0.80000,   0.00000,   0.00000  )

     Band symmetry, C_4v (4mm)  point group:

     e(  1 -  1) =     -3.20441  eV     1   --> A_1  G_1 D_1   
     e(  2 -  2) =     -0.14761  eV     1   --> B_2  G_4 D_2'  
     e(  3 -  4) =      3.30053  eV     2   --> E    G_5 D_5   
     e(  5 -  5) =      6.53439  eV     1   --> A_1  G_1 D_1   
     e(  6 -  6) =      7.26398  eV     1   --> B_2  G_4 D_2'  
     e(  7 -  8) =     14.41121  eV     2   --> E    G_5 D_5   

 **************************************************************************

 **************************************************************************

                    xk=(   0.85000,   0.00000,   0.00000  )

     Band symmetry, C_4v (4mm)  point group:

     e(  1 -  1) =     -2.87085  eV     1   --> A_1  G_1 D_1   
     e(  2 -  2) =     -0.57020  eV     1   --> B_2  G_4 D_2'  
     e(  3 -  4) =      3.23179  eV     2   --> E    G_5 D_5   
     e(  5 -  5) =      6.52535  eV     1   --> A_1  G_1 D_1   
     e(  6 -  6) =      7.06689  eV     1   --> B_2  G_4 D_2'  
     e(  7 -  8) =     14.87066  eV     2   --> E    G_5 D_5   

 **************************************************************************

 **************************************************************************

                    xk=(   0.90000,   0.00000,   0.00000  )

     Band symmetry, C_4v (4mm)  point group:

     e(  1 -  1) =     -2.52148  eV     1   --> A_1  G_1 D_1   
     e(  2 -  2) =     -0.98382  eV     1   --> B_2  G_4 D_2'  
     e(  3 -  4) =      3.18228  eV     2   --> E    G_5 D_5   
     e(  5 -  5) =      6.54271  eV     1   --> A_1  G_1 D_1   
     e(  6 -  6) =      6.90101  eV     1   --> B_2  G_4 D_2'  
     e(  7 -  8) =     15.32113  eV     2   --> E    G_5 D_5   

 **************************************************************************

 **************************************************************************

                    xk=(   0.95000,   0.00000,   0.00000  )

     Band symmetry, C_4v (4mm)  point group:

     e(  1 -  1) =     -2.15701  eV     1   --> A_1  G_1 D_1   
     e(  2 -  2) =     -1.38698  eV     1   --> B_2  G_4 D_2'  
     e(  3 -  4) =      3.15261  eV     2   --> E    G_5 D_5   
     e(  5 -  5) =      6.58805  eV     1   --> A_1  G_1 D_1   
     e(  6 -  6) =      6.76650  eV     1   --> B_2  G_4 D_2'  
     e(  7 -  8) =     15.73084  eV     2   --> E    G_5 D_5   

 **************************************************************************

 **************************************************************************

                    xk=(   1.00000,   0.00000,   0.00000  )

     zone border point and non-symmorphic group 
     symmetry decomposition not available

 **************************************************************************

     BANDS        :      4.08s CPU      0.92s WALL


   This run was terminated on:  23: 9:22  31Jul2021            

=------------------------------------------------------------------------------=
   JOB DONE.
=------------------------------------------------------------------------------=
