
     Program PWSCF v.6.4.1 starts on  2Aug2021 at 13:44:18 

     This program is part of the open-source Quantum ESPRESSO suite
     for quantum simulation of materials; please cite
         "P. Giannozzi et al., J. Phys.:Condens. Matter 21 395502 (2009);
         "P. Giannozzi et al., J. Phys.:Condens. Matter 29 465901 (2017);
          URL http://www.quantum-espresso.org", 
     in publications or presentations arising from this work. More details at
     http://www.quantum-espresso.org/quote

     Parallel version (MPI & OpenMP), running on      12 processor cores
     Number of MPI processes:                 1
     Threads/MPI process:                    12

     MPI processes distributed on     1 nodes
     Waiting for input...
     Reading input from standard input
Warning: card EOF ignored

     Current dimensions of program PWSCF are:
     Max number of different atomic species (ntypx) = 10
     Max number of k-points (npk) =  40000
     Max angular momentum in pseudopotentials (lmaxx) =  3

     gamma-point specific algorithms are used

     Subspace diagonalization in iterative solution of the eigenvalue problem:
     a serial algorithm will be used


     G-vector sticks info
     --------------------
     sticks:   dense  smooth     PW     G-vecs:    dense   smooth      PW
     Sum        3181    3181    793               135043   135043   16879



     bravais-lattice index     =            1
     lattice parameter (alat)  =      20.0000  a.u.
     unit-cell volume          =    8000.0000 (a.u.)^3
     number of atoms/cell      =            1
     number of atomic types    =            1
     number of electrons       =         4.00 (up:   3.00, down:   1.00)
     number of Kohn-Sham states=            7
     kinetic-energy cutoff     =      25.0000  Ry
     charge density cutoff     =     100.0000  Ry
     convergence threshold     =      1.0E-06
     mixing beta               =       0.7000
     number of iterations used =            8  plain     mixing
     Exchange-correlation      = SLA PZ NOGX NOGC ( 1  1  0  0 0 0)

     celldm(1)=  20.000000  celldm(2)=   0.000000  celldm(3)=   0.000000
     celldm(4)=   0.000000  celldm(5)=   0.000000  celldm(6)=   0.000000

     crystal axes: (cart. coord. in units of alat)
               a(1) = (   1.000000   0.000000   0.000000 )  
               a(2) = (   0.000000   1.000000   0.000000 )  
               a(3) = (   0.000000   0.000000   1.000000 )  

     reciprocal axes: (cart. coord. in units 2 pi/alat)
               b(1) = (  1.000000  0.000000  0.000000 )  
               b(2) = (  0.000000  1.000000  0.000000 )  
               b(3) = (  0.000000  0.000000  1.000000 )  


     PseudoPot. # 1 for Si read from file:
     ./\Si.pz-vbc.UPF
     MD5 check sum: 9f25e6ff280f3123e9b3a84715b2e9c9
     Pseudo is Norm-conserving, Zval =  4.0
     Generated by new atomic code, or converted to UPF format
     Using radial grid of  431 points,  2 beta functions with: 
                l(1) =   0
                l(2) =   1

     atomic species   valence    mass     pseudopotential
        Si             4.00    28.08600     Si( 1.00)

     Starting magnetic structure 
     atomic species   magnetization
        Si           0.000

     48 Sym. Ops., with inversion, found



   Cartesian axes

     site n.     atom                  positions (alat units)
         1           Si  tau(   1) = (   0.0000000   0.0000000   0.0000000  )

     number of k points=     1  gaussian smearing, width (Ry)=  0.0010
                       cart. coord. in units 2pi/alat
        k(    1) = (   0.0000000   0.0000000   0.0000000), wk =   1.0000000

     Dense  grid:    67522 G-vectors     FFT dimensions: (  64,  64,  64)

     Estimated max dynamical RAM per process >      87.35 MB
     Generating pointlists ...
     new r_m :   0.4125 (alat units)  8.2500 (a.u.) for type    1

     Initial potential from superposition of free atoms

     starting charge    3.99950, renormalised to    4.00000

     negative rho (up, down):  2.853E-04 0.000E+00
     Starting wfcs are    4 randomized atomic wfcs +    3 random wfcs

     total cpu time spent up to now is        0.3 secs

     Self-consistent Calculation

     iteration #  1     ecut=    25.00 Ry     beta= 0.70
     Davidson diagonalization with overlap
     ethr =  1.00E-02,  avg # of iterations =  6.5

     Threshold (ethr) on eigenvalues was too large:
     Diagonalizing with lowered threshold

     Davidson diagonalization with overlap
     ethr =  1.45E-04,  avg # of iterations =  6.0

     negative rho (up, down):  4.022E-05 1.276E-01

     total cpu time spent up to now is        0.5 secs

     total energy              =      -7.53175706 Ry
     Harris-Foulkes estimate   =      -7.48915611 Ry
     estimated scf accuracy    <       0.00581221 Ry

     total magnetization       =     2.00 Bohr mag/cell
     absolute magnetization    =     2.00 Bohr mag/cell

     iteration #  2     ecut=    25.00 Ry     beta= 0.70
     Davidson diagonalization with overlap
     ethr =  1.45E-04,  avg # of iterations =  1.5

     negative rho (up, down):  1.154E-07 1.366E-01

     total cpu time spent up to now is        0.6 secs

     total energy              =      -7.53713052 Ry
     Harris-Foulkes estimate   =      -7.53224278 Ry
     estimated scf accuracy    <       0.00081938 Ry

     total magnetization       =     2.00 Bohr mag/cell
     absolute magnetization    =     2.00 Bohr mag/cell

     iteration #  3     ecut=    25.00 Ry     beta= 0.70
     Davidson diagonalization with overlap
     ethr =  2.05E-05,  avg # of iterations = 14.0

     negative rho (up, down):  3.439E-09 8.361E-02

     total cpu time spent up to now is        0.8 secs

     total energy              =      -7.53721128 Ry
     Harris-Foulkes estimate   =      -7.53720044 Ry
     estimated scf accuracy    <       0.00001327 Ry

     total magnetization       =     2.00 Bohr mag/cell
     absolute magnetization    =     2.00 Bohr mag/cell

     iteration #  4     ecut=    25.00 Ry     beta= 0.70
     Davidson diagonalization with overlap
     ethr =  3.32E-07,  avg # of iterations =  5.5

     negative rho (up, down):  3.006E-09 8.308E-02

     total cpu time spent up to now is        0.9 secs

     total energy              =      -7.53721598 Ry
     Harris-Foulkes estimate   =      -7.53722059 Ry
     estimated scf accuracy    <       0.00012068 Ry

     total magnetization       =     2.00 Bohr mag/cell
     absolute magnetization    =     2.00 Bohr mag/cell

     iteration #  5     ecut=    25.00 Ry     beta= 0.70
     Davidson diagonalization with overlap
     ethr =  3.32E-07,  avg # of iterations =  1.0

     negative rho (up, down):  3.597E-11 3.148E-02

     total cpu time spent up to now is        1.0 secs

     total energy              =      -7.53721924 Ry
     Harris-Foulkes estimate   =      -7.53721851 Ry
     estimated scf accuracy    <       0.00000149 Ry

     total magnetization       =     2.00 Bohr mag/cell
     absolute magnetization    =     2.00 Bohr mag/cell

     iteration #  6     ecut=    25.00 Ry     beta= 0.70
     Davidson diagonalization with overlap
     ethr =  3.72E-08,  avg # of iterations =  1.5

     Magnetic moment per site:
     atom:    1    charge:    3.9991    magn:    1.9991    constr:    0.0000

     total cpu time spent up to now is        1.1 secs

     End of self-consistent calculation

 ------ SPIN UP ------------


          k = 0.0000 0.0000 0.0000 (  8440 PWs)   bands (ev):

   -11.1417  -4.4120  -4.4119  -4.4118  -0.4501   0.8449   0.8452

 ------ SPIN DOWN ----------


          k = 0.0000 0.0000 0.0000 (  8440 PWs)   bands (ev):

    -9.5832  -3.0769  -3.0768  -3.0765  -0.2872   0.9890   0.9890

     the spin up/dw Fermi energies are    -4.4077   -5.0763 ev

!    total energy              =      -7.53721929 Ry
     Harris-Foulkes estimate   =      -7.53721942 Ry
     estimated scf accuracy    <       0.00000080 Ry

     The total energy is the sum of the following terms:

     one-electron contribution =      -6.97761011 Ry
     hartree contribution      =       3.70533127 Ry
     xc contribution           =      -1.99433112 Ry
     ewald contribution        =      -2.26983803 Ry
     smearing contrib. (-TS)   =      -0.00077130 Ry

     total magnetization       =     2.00 Bohr mag/cell
     absolute magnetization    =     2.00 Bohr mag/cell

     convergence has been achieved in   6 iterations

     Writing output data file silicon.save\

     init_run     :      0.59s CPU      0.15s WALL (       1 calls)
     electrons    :      5.30s CPU      0.85s WALL (       1 calls)

     Called by init_run:
     wfcinit      :      0.17s CPU      0.03s WALL (       1 calls)
     potinit      :      0.27s CPU      0.03s WALL (       1 calls)
     hinit0       :      0.14s CPU      0.06s WALL (       1 calls)

     Called by electrons:
     c_bands      :      2.73s CPU      0.48s WALL (       7 calls)
     sum_band     :      0.50s CPU      0.08s WALL (       7 calls)
     v_of_rho     :      1.75s CPU      0.20s WALL (       7 calls)
     mix_rho      :      0.52s CPU      0.10s WALL (       7 calls)

     Called by c_bands:
     init_us_2    :      0.00s CPU      0.00s WALL (      30 calls)
     regterg      :      2.47s CPU      0.45s WALL (      14 calls)

     Called by sum_band:

     Called by *egterg:
     h_psi        :      1.81s CPU      0.31s WALL (      88 calls)
     g_psi        :      0.00s CPU      0.00s WALL (      72 calls)
     rdiaghg      :      0.06s CPU      0.02s WALL (      84 calls)

     Called by h_psi:
     h_psi:pot    :      1.81s CPU      0.31s WALL (      88 calls)
     h_psi:calbec :      0.09s CPU      0.02s WALL (      88 calls)
     vloc_psi     :      1.62s CPU      0.28s WALL (      88 calls)
     add_vuspsi   :      0.09s CPU      0.02s WALL (      88 calls)

     General routines
     calbec       :      0.09s CPU      0.02s WALL (      88 calls)
     fft          :      0.09s CPU      0.02s WALL (      33 calls)
     ffts         :      0.09s CPU      0.02s WALL (      14 calls)
     fftw         :      0.81s CPU      0.15s WALL (     454 calls)

     Parallel routines

     PWSCF        :      6.09s CPU      1.15s WALL


   This run was terminated on:  13:44:20   2Aug2021            

=------------------------------------------------------------------------------=
   JOB DONE.
=------------------------------------------------------------------------------=
