
     Program PWSCF v.6.4.1 starts on  1Aug2021 at  0: 2: 2 

     This program is part of the open-source Quantum ESPRESSO suite
     for quantum simulation of materials; please cite
         "P. Giannozzi et al., J. Phys.:Condens. Matter 21 395502 (2009);
         "P. Giannozzi et al., J. Phys.:Condens. Matter 29 465901 (2017);
          URL http://www.quantum-espresso.org", 
     in publications or presentations arising from this work. More details at
     http://www.quantum-espresso.org/quote

     Parallel version (MPI & OpenMP), running on      12 processor cores
     Number of MPI processes:                 1
     Threads/MPI process:                    12

     MPI processes distributed on     1 nodes
     Waiting for input...
     Reading input from standard input
     Message from routine read_cards :
     DEPRECATED: no units specified in ATOMIC_POSITIONS card
     Message from routine read_cards :
     ATOMIC_POSITIONS: units set to alat
Warning: card EOF ignored

     Current dimensions of program PWSCF are:
     Max number of different atomic species (ntypx) = 10
     Max number of k-points (npk) =  40000
     Max angular momentum in pseudopotentials (lmaxx) =  3

     Atomic positions and unit cell read from directory:
     ./\silicon.save\


     Subspace diagonalization in iterative solution of the eigenvalue problem:
     a serial algorithm will be used


     G-vector sticks info
     --------------------
     sticks:   dense  smooth     PW     G-vecs:    dense   smooth      PW
     Sum         367     367    121                 4621     4621     869



     bravais-lattice index     =            2
     lattice parameter (alat)  =      10.2800  a.u.
     unit-cell volume          =     271.5935 (a.u.)^3
     number of atoms/cell      =            2
     number of atomic types    =            1
     number of electrons       =         8.00
     number of Kohn-Sham states=            8
     kinetic-energy cutoff     =      25.0000  Ry
     charge density cutoff     =     100.0000  Ry
     Exchange-correlation      = SLA PZ NOGX NOGC ( 1  1  0  0 0 0)

     celldm(1)=  10.280000  celldm(2)=   0.000000  celldm(3)=   0.000000
     celldm(4)=   0.000000  celldm(5)=   0.000000  celldm(6)=   0.000000

     crystal axes: (cart. coord. in units of alat)
               a(1) = (  -0.500000   0.000000   0.500000 )  
               a(2) = (   0.000000   0.500000   0.500000 )  
               a(3) = (  -0.500000   0.500000   0.000000 )  

     reciprocal axes: (cart. coord. in units 2 pi/alat)
               b(1) = ( -1.000000 -1.000000  1.000000 )  
               b(2) = (  1.000000  1.000000  1.000000 )  
               b(3) = ( -1.000000  1.000000 -1.000000 )  


     PseudoPot. # 1 for Si read from file:
     ./\Si.pz-vbc.UPF
     MD5 check sum: 227d4ea0bf76b9624ae610a8f5cd5c8c
     Pseudo is Norm-conserving, Zval =  4.0
     Generated by new atomic code, or converted to UPF format
     Using radial grid of  431 points,  2 beta functions with: 
                l(1) =   0
                l(2) =   1

     atomic species   valence    mass     pseudopotential
        Si             4.00    28.08600     Si( 1.00)

     48 Sym. Ops., with inversion, found (24 have fractional translation)



   Cartesian axes

     site n.     atom                  positions (alat units)
         1           Si  tau(   1) = (   0.0000000   0.0000000   0.0000000  )
         2           Si  tau(   2) = (   0.2500000   0.2500000   0.2500000  )

     number of k points=    41
                       cart. coord. in units 2pi/alat
        k(    1) = (   0.5000000   0.5000000   0.5000000), wk =   0.0487805
        k(    2) = (   0.4750000   0.4750000   0.4750000), wk =   0.0487805
        k(    3) = (   0.4500000   0.4500000   0.4500000), wk =   0.0487805
        k(    4) = (   0.4250000   0.4250000   0.4250000), wk =   0.0487805
        k(    5) = (   0.4000000   0.4000000   0.4000000), wk =   0.0487805
        k(    6) = (   0.3750000   0.3750000   0.3750000), wk =   0.0487805
        k(    7) = (   0.3500000   0.3500000   0.3500000), wk =   0.0487805
        k(    8) = (   0.3250000   0.3250000   0.3250000), wk =   0.0487805
        k(    9) = (   0.3000000   0.3000000   0.3000000), wk =   0.0487805
        k(   10) = (   0.2750000   0.2750000   0.2750000), wk =   0.0487805
        k(   11) = (   0.2500000   0.2500000   0.2500000), wk =   0.0487805
        k(   12) = (   0.2250000   0.2250000   0.2250000), wk =   0.0487805
        k(   13) = (   0.2000000   0.2000000   0.2000000), wk =   0.0487805
        k(   14) = (   0.1750000   0.1750000   0.1750000), wk =   0.0487805
        k(   15) = (   0.1500000   0.1500000   0.1500000), wk =   0.0487805
        k(   16) = (   0.1250000   0.1250000   0.1250000), wk =   0.0487805
        k(   17) = (   0.1000000   0.1000000   0.1000000), wk =   0.0487805
        k(   18) = (   0.0750000   0.0750000   0.0750000), wk =   0.0487805
        k(   19) = (   0.0500000   0.0500000   0.0500000), wk =   0.0487805
        k(   20) = (   0.0250000   0.0250000   0.0250000), wk =   0.0487805
        k(   21) = (   0.0000000   0.0000000   0.0000000), wk =   0.0487805
        k(   22) = (   0.0500000   0.0000000   0.0000000), wk =   0.0487805
        k(   23) = (   0.1000000   0.0000000   0.0000000), wk =   0.0487805
        k(   24) = (   0.1500000   0.0000000   0.0000000), wk =   0.0487805
        k(   25) = (   0.2000000   0.0000000   0.0000000), wk =   0.0487805
        k(   26) = (   0.2500000   0.0000000   0.0000000), wk =   0.0487805
        k(   27) = (   0.3000000   0.0000000   0.0000000), wk =   0.0487805
        k(   28) = (   0.3500000   0.0000000   0.0000000), wk =   0.0487805
        k(   29) = (   0.4000000   0.0000000   0.0000000), wk =   0.0487805
        k(   30) = (   0.4500000   0.0000000   0.0000000), wk =   0.0487805
        k(   31) = (   0.5000000   0.0000000   0.0000000), wk =   0.0487805
        k(   32) = (   0.5500000   0.0000000   0.0000000), wk =   0.0487805
        k(   33) = (   0.6000000   0.0000000   0.0000000), wk =   0.0487805
        k(   34) = (   0.6500000   0.0000000   0.0000000), wk =   0.0487805
        k(   35) = (   0.7000000   0.0000000   0.0000000), wk =   0.0487805
        k(   36) = (   0.7500000   0.0000000   0.0000000), wk =   0.0487805
        k(   37) = (   0.8000000   0.0000000   0.0000000), wk =   0.0487805
        k(   38) = (   0.8500000   0.0000000   0.0000000), wk =   0.0487805
        k(   39) = (   0.9000000   0.0000000   0.0000000), wk =   0.0487805
        k(   40) = (   0.9500000   0.0000000   0.0000000), wk =   0.0487805
        k(   41) = (   1.0000000   0.0000000   0.0000000), wk =   0.0487805

     Dense  grid:     4621 G-vectors     FFT dimensions: (  24,  24,  24)

     Estimated max dynamical RAM per process >       2.43 MB

     The potential is recalculated from file :
     ./\silicon.save\charge-density

     Starting wfcs are    8 randomized atomic wfcs

     Band Structure Calculation
     Davidson diagonalization with overlap

     ethr =  1.25E-08,  avg # of iterations = 11.6

     total cpu time spent up to now is        1.4 secs

     End of band structure calculation

          k = 0.5000 0.5000 0.5000 (   580 PWs)   bands (ev):

    -3.5745  -0.9633   4.7919   4.7919   7.4684   9.3304   9.3304  13.5465

          k = 0.4750 0.4750 0.4750 (   577 PWs)   bands (ev):

    -3.6104  -0.9120   4.7966   4.7966   7.4735   9.3356   9.3356  13.5546

          k = 0.4500 0.4500 0.4500 (   577 PWs)   bands (ev):

    -3.7100  -0.7661   4.8100   4.8100   7.4889   9.3506   9.3506  13.5781

          k = 0.4250 0.4250 0.4250 (   583 PWs)   bands (ev):

    -3.8557  -0.5439   4.8324   4.8324   7.5144   9.3742   9.3742  13.6144

          k = 0.4000 0.4000 0.4000 (   589 PWs)   bands (ev):

    -4.0291  -0.2634   4.8637   4.8637   7.5500   9.4045   9.4045  13.6591

          k = 0.3750 0.3750 0.3750 (   580 PWs)   bands (ev):

    -4.2160   0.0611   4.9042   4.9042   7.5958   9.4394   9.4394  13.7009

          k = 0.3500 0.3500 0.3500 (   580 PWs)   bands (ev):

    -4.4068   0.4191   4.9531   4.9531   7.6511   9.4732   9.4732  13.7137

          k = 0.3250 0.3250 0.3250 (   577 PWs)   bands (ev):

    -4.5951   0.8040   5.0105   5.0105   7.7158   9.5015   9.5015  13.6459

          k = 0.3000 0.3000 0.3000 (   571 PWs)   bands (ev):

    -4.7767   1.2108   5.0762   5.0762   7.7896   9.5177   9.5177  13.4404

          k = 0.2750 0.2750 0.2750 (   573 PWs)   bands (ev):

    -4.9486   1.6354   5.1498   5.1498   7.8711   9.5147   9.5147  13.1152

          k = 0.2500 0.2500 0.2500 (   573 PWs)   bands (ev):

    -5.1091   2.0755   5.2307   5.2307   7.9600   9.4865   9.4865  12.7263

          k = 0.2250 0.2250 0.2250 (   573 PWs)   bands (ev):

    -5.2568   2.5281   5.3181   5.3181   8.0548   9.4291   9.4291  12.3082

          k = 0.2000 0.2000 0.2000 (   567 PWs)   bands (ev):

    -5.3906   2.9902   5.4107   5.4107   8.1539   9.3427   9.3427  11.8757

          k = 0.1750 0.1750 0.1750 (   570 PWs)   bands (ev):

    -5.5099   3.4584   5.5069   5.5069   8.2545   9.2313   9.2313  11.4363

          k = 0.1500 0.1500 0.1500 (   570 PWs)   bands (ev):

    -5.6141   3.9283   5.6044   5.6044   8.3534   9.1032   9.1032  10.9954

          k = 0.1250 0.1250 0.1250 (   570 PWs)   bands (ev):

    -5.7028   4.3938   5.7002   5.7002   8.4459   8.9682   8.9682  10.5599

          k = 0.1000 0.1000 0.1000 (   570 PWs)   bands (ev):

    -5.7758   4.8451   5.7903   5.7903   8.5248   8.8371   8.8371  10.1413

          k = 0.0750 0.0750 0.0750 (   558 PWs)   bands (ev):

    -5.8327   5.2666   5.8700   5.8700   8.5802   8.7213   8.7213   9.7608

          k = 0.0500 0.0500 0.0500 (   552 PWs)   bands (ev):

    -5.8735   5.6305   5.9330   5.9330   8.5965   8.6289   8.6289   9.4547

          k = 0.0250 0.0250 0.0250 (   546 PWs)   bands (ev):

    -5.8980   5.8909   5.9741   5.9741   8.5695   8.5695   8.5716   9.2671

          k = 0.0000 0.0000 0.0000 (   537 PWs)   bands (ev):

    -5.9061   5.9888   5.9888   5.9888   8.5494   8.5494   8.5494   9.2089

          k = 0.0500 0.0000 0.0000 (   549 PWs)   bands (ev):

    -5.8953   5.9131   5.9415   5.9415   8.5205   8.6082   8.6082   9.2816

          k = 0.1000 0.0000 0.0000 (   557 PWs)   bands (ev):

    -5.8626   5.7065   5.8135   5.8135   8.4391   8.7748   8.7748   9.4784

          k = 0.1500 0.0000 0.0000 (   565 PWs)   bands (ev):

    -5.8081   5.4074   5.6297   5.6297   8.3133   9.0228   9.0228   9.7498

          k = 0.2000 0.0000 0.0000 (   564 PWs)   bands (ev):

    -5.7320   5.0499   5.4146   5.4146   8.1567   9.3290   9.3290  10.0352

          k = 0.2500 0.0000 0.0000 (   564 PWs)   bands (ev):

    -5.6344   4.6570   5.1853   5.1853   7.9799   9.6747   9.6747  10.2531

          k = 0.3000 0.0000 0.0000 (   568 PWs)   bands (ev):

    -5.5153   4.2426   4.9530   4.9530   7.7933  10.0481  10.0481  10.2984

          k = 0.3500 0.0000 0.0000 (   572 PWs)   bands (ev):

    -5.3749   3.8148   4.7249   4.7249   7.6046  10.1309  10.4418  10.4418

          k = 0.4000 0.0000 0.0000 (   572 PWs)   bands (ev):

    -5.2135   3.3787   4.5055   4.5055   7.4210   9.8235  10.8510  10.8510

          k = 0.4500 0.0000 0.0000 (   576 PWs)   bands (ev):

    -5.0313   2.9374   4.2979   4.2979   7.2470   9.4587  11.2716  11.2716

          k = 0.5000 0.0000 0.0000 (   576 PWs)   bands (ev):

    -4.8286   2.4931   4.1043   4.1043   7.0864   9.0816  11.7019  11.7019

          k = 0.5500 0.0000 0.0000 (   568 PWs)   bands (ev):

    -4.6056   2.0478   3.9264   3.9264   6.9422   8.7147  12.1405  12.1405

          k = 0.6000 0.0000 0.0000 (   568 PWs)   bands (ev):

    -4.3630   1.6025   3.7650   3.7650   6.8165   8.3671  12.5851  12.5851

          k = 0.6500 0.0000 0.0000 (   576 PWs)   bands (ev):

    -4.1010   1.1587   3.6210   3.6210   6.7112   8.0457  13.0338  13.0338

          k = 0.7000 0.0000 0.0000 (   576 PWs)   bands (ev):

    -3.8201   0.7182   3.4953   3.4953   6.6283   7.7538  13.4890  13.4890

          k = 0.7500 0.0000 0.0000 (   568 PWs)   bands (ev):

    -3.5210   0.2824   3.3886   3.3886   6.5691   7.4930  13.9488  13.9488

          k = 0.8000 0.0000 0.0000 (   568 PWs)   bands (ev):

    -3.2044  -0.1476   3.3005   3.3005   6.5344   7.2640  14.4112  14.4112

          k = 0.8500 0.0000 0.0000 (   568 PWs)   bands (ev):

    -2.8708  -0.5702   3.2318   3.2318   6.5254   7.0669  14.8707  14.8707

          k = 0.9000 0.0000 0.0000 (   584 PWs)   bands (ev):

    -2.5215  -0.9838   3.1823   3.1823   6.5427   6.9010  15.3211  15.3211

          k = 0.9500 0.0000 0.0000 (   588 PWs)   bands (ev):

    -2.1570  -1.3870   3.1526   3.1526   6.5881   6.7665  15.7308  15.7308

          k = 1.0000 0.0000 0.0000 (   588 PWs)   bands (ev):

    -1.7785  -1.7785   3.1427   3.1427   6.6625   6.6625  15.9433  15.9433

     Writing output data file silicon.save\

     init_run     :      0.03s CPU      0.04s WALL (       1 calls)
     electrons    :      5.50s CPU      0.97s WALL (       1 calls)

     Called by init_run:
     wfcinit      :      0.00s CPU      0.00s WALL (       1 calls)
     potinit      :      0.00s CPU      0.00s WALL (       1 calls)
     hinit0       :      0.03s CPU      0.04s WALL (       1 calls)

     Called by electrons:
     c_bands      :      5.50s CPU      0.97s WALL (       1 calls)
     v_of_rho     :      0.00s CPU      0.00s WALL (       1 calls)

     Called by c_bands:
     init_us_2    :      0.12s CPU      0.00s WALL (      41 calls)
     cegterg      :      4.75s CPU      0.85s WALL (      41 calls)

     Called by sum_band:

     Called by *egterg:
     h_psi        :      4.33s CPU      0.77s WALL (     559 calls)
     g_psi        :      0.09s CPU      0.02s WALL (     477 calls)
     cdiaghg      :      0.28s CPU      0.05s WALL (     518 calls)

     Called by h_psi:
     h_psi:pot    :      4.33s CPU      0.74s WALL (     559 calls)
     h_psi:calbec :      0.00s CPU      0.00s WALL (     559 calls)
     vloc_psi     :      4.14s CPU      0.73s WALL (     559 calls)
     add_vuspsi   :      0.09s CPU      0.01s WALL (     559 calls)

     General routines
     calbec       :      0.00s CPU      0.00s WALL (     559 calls)
     fft          :      0.00s CPU      0.00s WALL (       3 calls)
     fftw         :      1.88s CPU      0.22s WALL (    6526 calls)
     davcio       :      0.00s CPU      0.01s WALL (      82 calls)

     Parallel routines

     PWSCF        :      6.20s CPU      1.52s WALL


   This run was terminated on:   0: 2: 4   1Aug2021            

=------------------------------------------------------------------------------=
   JOB DONE.
=------------------------------------------------------------------------------=
