
     Program PWSCF v.6.4.1 starts on  2Aug2021 at 13:44:32 

     This program is part of the open-source Quantum ESPRESSO suite
     for quantum simulation of materials; please cite
         "P. Giannozzi et al., J. Phys.:Condens. Matter 21 395502 (2009);
         "P. Giannozzi et al., J. Phys.:Condens. Matter 29 465901 (2017);
          URL http://www.quantum-espresso.org", 
     in publications or presentations arising from this work. More details at
     http://www.quantum-espresso.org/quote

     Parallel version (MPI & OpenMP), running on      12 processor cores
     Number of MPI processes:                 1
     Threads/MPI process:                    12

     MPI processes distributed on     1 nodes
     Waiting for input...
     Reading input from standard input
     Message from routine read_cards :
     DEPRECATED: no units specified in ATOMIC_POSITIONS card
     Message from routine read_cards :
     ATOMIC_POSITIONS: units set to alat
Warning: card EOF ignored

     Current dimensions of program PWSCF are:
     Max number of different atomic species (ntypx) = 10
     Max number of k-points (npk) =  40000
     Max angular momentum in pseudopotentials (lmaxx) =  3

     Subspace diagonalization in iterative solution of the eigenvalue problem:
     a serial algorithm will be used


     G-vector sticks info
     --------------------
     sticks:   dense  smooth     PW     G-vecs:    dense   smooth      PW
     Sum         361     361    121                 4477     4477     869



     bravais-lattice index     =            2
     lattice parameter (alat)  =      10.2078  a.u.
     unit-cell volume          =     265.9111 (a.u.)^3
     number of atoms/cell      =            2
     number of atomic types    =            1
     number of electrons       =         8.00
     number of Kohn-Sham states=            4
     kinetic-energy cutoff     =      25.0000  Ry
     charge density cutoff     =     100.0000  Ry
     convergence threshold     =      1.0E-06
     mixing beta               =       0.7000
     number of iterations used =            8  plain     mixing
     Exchange-correlation      = SLA PZ NOGX NOGC ( 1  1  0  0 0 0)

     celldm(1)=  10.207800  celldm(2)=   0.000000  celldm(3)=   0.000000
     celldm(4)=   0.000000  celldm(5)=   0.000000  celldm(6)=   0.000000

     crystal axes: (cart. coord. in units of alat)
               a(1) = (  -0.500000   0.000000   0.500000 )  
               a(2) = (   0.000000   0.500000   0.500000 )  
               a(3) = (  -0.500000   0.500000   0.000000 )  

     reciprocal axes: (cart. coord. in units 2 pi/alat)
               b(1) = ( -1.000000 -1.000000  1.000000 )  
               b(2) = (  1.000000  1.000000  1.000000 )  
               b(3) = ( -1.000000  1.000000 -1.000000 )  


     PseudoPot. # 1 for Si read from file:
     ./\Si.pz-vbc.UPF
     MD5 check sum: 9f25e6ff280f3123e9b3a84715b2e9c9
     Pseudo is Norm-conserving, Zval =  4.0
     Generated by new atomic code, or converted to UPF format
     Using radial grid of  431 points,  2 beta functions with: 
                l(1) =   0
                l(2) =   1

     atomic species   valence    mass     pseudopotential
        Si             4.00    28.08600     Si( 1.00)

     48 Sym. Ops., with inversion, found (24 have fractional translation)



   Cartesian axes

     site n.     atom                  positions (alat units)
         1           Si  tau(   1) = (   0.0000000   0.0000000   0.0000000  )
         2           Si  tau(   2) = (   0.2500000   0.2500000   0.2500000  )

     number of k points=    10
                       cart. coord. in units 2pi/alat
        k(    1) = (  -0.1250000   0.1250000   0.1250000), wk =   0.0625000
        k(    2) = (  -0.3750000   0.3750000  -0.1250000), wk =   0.1875000
        k(    3) = (   0.3750000  -0.3750000   0.6250000), wk =   0.1875000
        k(    4) = (   0.1250000  -0.1250000   0.3750000), wk =   0.1875000
        k(    5) = (  -0.1250000   0.6250000   0.1250000), wk =   0.1875000
        k(    6) = (   0.6250000  -0.1250000   0.8750000), wk =   0.3750000
        k(    7) = (   0.3750000   0.1250000   0.6250000), wk =   0.3750000
        k(    8) = (  -0.1250000  -0.8750000   0.1250000), wk =   0.1875000
        k(    9) = (  -0.3750000   0.3750000   0.3750000), wk =   0.0625000
        k(   10) = (   0.3750000  -0.3750000   1.1250000), wk =   0.1875000

     Dense  grid:     4477 G-vectors     FFT dimensions: (  24,  24,  24)

     Estimated max dynamical RAM per process >       3.65 MB

     Initial potential from superposition of free atoms

     starting charge    7.99901, renormalised to    8.00000
     Starting wfcs are    8 randomized atomic wfcs

     total cpu time spent up to now is        0.2 secs

     Self-consistent Calculation

     iteration #  1     ecut=    25.00 Ry     beta= 0.70
     Davidson diagonalization with overlap
     ethr =  1.00E-02,  avg # of iterations =  2.0

     Threshold (ethr) on eigenvalues was too large:
     Diagonalizing with lowered threshold

     Davidson diagonalization with overlap
     ethr =  7.88E-04,  avg # of iterations =  1.0

     total cpu time spent up to now is        0.3 secs

     total energy              =     -15.84768757 Ry
     Harris-Foulkes estimate   =     -15.86860394 Ry
     estimated scf accuracy    <       0.06167429 Ry

     iteration #  2     ecut=    25.00 Ry     beta= 0.70
     Davidson diagonalization with overlap
     ethr =  7.71E-04,  avg # of iterations =  1.0

     total cpu time spent up to now is        0.3 secs

     total energy              =     -15.85076450 Ry
     Harris-Foulkes estimate   =     -15.85106172 Ry
     estimated scf accuracy    <       0.00215663 Ry

     iteration #  3     ecut=    25.00 Ry     beta= 0.70
     Davidson diagonalization with overlap
     ethr =  2.70E-05,  avg # of iterations =  2.5

     total cpu time spent up to now is        0.4 secs

     total energy              =     -15.85120528 Ry
     Harris-Foulkes estimate   =     -15.85123738 Ry
     estimated scf accuracy    <       0.00007266 Ry

     iteration #  4     ecut=    25.00 Ry     beta= 0.70
     Davidson diagonalization with overlap
     ethr =  9.08E-07,  avg # of iterations =  2.2

     total cpu time spent up to now is        0.5 secs

     total energy              =     -15.85122250 Ry
     Harris-Foulkes estimate   =     -15.85122604 Ry
     estimated scf accuracy    <       0.00000755 Ry

     iteration #  5     ecut=    25.00 Ry     beta= 0.70
     Davidson diagonalization with overlap
     ethr =  9.44E-08,  avg # of iterations =  2.0

     total cpu time spent up to now is        0.5 secs

     End of self-consistent calculation

          k =-0.1250 0.1250 0.1250 (   552 PWs)   bands (ev):

    -5.6218   4.6098   5.9176   5.9176

          k =-0.3750 0.3750-0.1250 (   559 PWs)   bands (ev):

    -4.5586   1.5635   3.8621   5.4282

          k = 0.3750-0.3750 0.6250 (   567 PWs)   bands (ev):

    -3.3592  -0.6044   3.9036   4.6251

          k = 0.1250-0.1250 0.3750 (   563 PWs)   bands (ev):

    -5.0764   2.9842   4.8694   4.9558

          k =-0.1250 0.6250 0.1250 (   562 PWs)   bands (ev):

    -4.0099   1.2787   3.4904   3.9653

          k = 0.6250-0.1250 0.8750 (   558 PWs)   bands (ev):

    -2.2981  -0.7300   2.0594   3.1877

          k = 0.3750 0.1250 0.6250 (   560 PWs)   bands (ev):

    -3.5728   0.3480   2.8316   4.2463

          k =-0.1250-0.8750 0.1250 (   564 PWs)   bands (ev):

    -2.4865  -0.6221   2.7019   3.4830

          k =-0.3750 0.3750 0.3750 (   565 PWs)   bands (ev):

    -4.1041   0.2092   5.1100   5.1100

          k = 0.3750-0.3750 1.1250 (   562 PWs)   bands (ev):

    -2.8489  -0.4628   2.1396   4.2947

     highest occupied level (ev):     5.9176

!    total energy              =     -15.85122369 Ry
     Harris-Foulkes estimate   =     -15.85122374 Ry
     estimated scf accuracy    <       0.00000009 Ry

     The total energy is the sum of the following terms:

     one-electron contribution =       4.76980721 Ry
     hartree contribution      =       1.08019836 Ry
     xc contribution           =      -4.81438413 Ry
     ewald contribution        =     -16.88684513 Ry

     convergence has been achieved in   5 iterations

     Writing output data file silicon.save\

     init_run     :      0.28s CPU      0.08s WALL (       1 calls)
     electrons    :      1.92s CPU      0.37s WALL (       1 calls)

     Called by init_run:
     wfcinit      :      0.17s CPU      0.04s WALL (       1 calls)
     potinit      :      0.08s CPU      0.00s WALL (       1 calls)
     hinit0       :      0.03s CPU      0.04s WALL (       1 calls)

     Called by electrons:
     c_bands      :      1.50s CPU      0.29s WALL (       6 calls)
     sum_band     :      0.25s CPU      0.07s WALL (       6 calls)
     v_of_rho     :      0.00s CPU      0.00s WALL (       6 calls)
     mix_rho      :      0.08s CPU      0.00s WALL (       6 calls)

     Called by c_bands:
     init_us_2    :      0.11s CPU      0.02s WALL (     130 calls)
     cegterg      :      1.44s CPU      0.26s WALL (      60 calls)

     Called by sum_band:

     Called by *egterg:
     h_psi        :      1.52s CPU      0.24s WALL (     177 calls)
     g_psi        :      0.00s CPU      0.01s WALL (     107 calls)
     cdiaghg      :      0.09s CPU      0.01s WALL (     157 calls)

     Called by h_psi:
     h_psi:pot    :      1.39s CPU      0.23s WALL (     177 calls)
     h_psi:calbec :      0.00s CPU      0.00s WALL (     177 calls)
     vloc_psi     :      1.39s CPU      0.22s WALL (     177 calls)
     add_vuspsi   :      0.00s CPU      0.00s WALL (     177 calls)

     General routines
     calbec       :      0.00s CPU      0.00s WALL (     177 calls)
     fft          :      0.00s CPU      0.00s WALL (      18 calls)
     ffts         :      0.00s CPU      0.00s WALL (       6 calls)
     fftw         :      0.38s CPU      0.06s WALL (    1654 calls)

     Parallel routines

     PWSCF        :      2.42s CPU      0.60s WALL


   This run was terminated on:  13:44:32   2Aug2021            

=------------------------------------------------------------------------------=
   JOB DONE.
=------------------------------------------------------------------------------=
