 CRYSTAL
 PRIMVEC
   -2.719970852    0.000000000    2.719970852
    0.000000000    2.719970852    2.719970852
   -2.719970852    2.719970852    0.000000000
 PRIMCOORD
           2           1
Si        0.000000000    0.000000000    0.000000000
Si        1.359985426    1.359985426    1.359985426
BEGIN_BLOCK_DATAGRID_3D
3D_PWSCF
DATAGRID_3D_UNKNOWN
          25          25          25
  0.000000  0.000000  0.000000
   -2.719971    0.000000    2.719971
    0.000000    2.719971    2.719971
   -2.719971    2.719971    0.000000
 -0.268818E-11  0.130314E-02  0.598291E-02  0.130575E-01  0.190903E-01  0.215388E-01
  0.207094E-01  0.182023E-01  0.150880E-01  0.117525E-01  0.842380E-02  0.536954E-02
  0.284087E-02  0.105970E-02  0.174933E-03 -0.179990E-03 -0.973878E-03 -0.242170E-02
 -0.411962E-02 -0.522385E-02 -0.504106E-02 -0.377339E-02 -0.216178E-02 -0.724235E-03
 -0.268818E-11 -0.242795E-03  0.434186E-03  0.327564E-02  0.793149E-02  0.118139E-01
  0.133269E-01  0.128156E-01  0.112429E-01  0.919719E-02  0.695752E-02  0.474937E-02
  0.277868E-02  0.123194E-02  0.288965E-03 -0.511618E-04 -0.522121E-03 -0.170766E-02
 -0.351277E-02 -0.534954E-02 -0.622296E-02 -0.570218E-02 -0.436429E-02 -0.290064E-02
 -0.145486E-02 -0.242795E-03 -0.139216E-02 -0.207967E-03  0.122831E-02  0.383522E-02
  0.616728E-02  0.719407E-02  0.707251E-02  0.626210E-02  0.507090E-02  0.371617E-02
  0.238236E-02  0.121888E-02  0.381576E-03  0.245873E-04 -0.234355E-03 -0.107522E-02
 -0.264359E-02 -0.479518E-02 -0.677412E-02 -0.764035E-02 -0.727340E-02 -0.632014E-02
 -0.513956E-02 -0.347025E-02 -0.139216E-02 -0.333432E-02 -0.855235E-03  0.406723E-03
  0.146117E-02  0.268749E-02  0.336980E-02  0.346599E-02  0.312415E-02  0.250217E-02
  0.175957E-02  0.102462E-02  0.406952E-03  0.457734E-04 -0.797530E-04 -0.610691E-03
 -0.177343E-02 -0.370506E-02 -0.619625E-02 -0.847375E-02 -0.978998E-02 -0.101393E-01
 -0.987945E-02 -0.886193E-02 -0.656212E-02 -0.333432E-02 -0.504312E-02 -0.177047E-02
 -0.413944E-03  0.445721E-03  0.926984E-03  0.132467E-02  0.147369E-02  0.136685E-02
  0.108041E-02  0.715535E-03  0.350775E-03  0.734804E-04 -0.137837E-04 -0.305157E-03
 -0.107476E-02 -0.250371E-02 -0.473793E-02 -0.756925E-02 -0.103480E-01 -0.124717E-01
 -0.137467E-01 -0.139820E-01 -0.125969E-01 -0.927841E-02 -0.504312E-02 -0.586511E-02
 -0.248141E-02 -0.757945E-03 -0.222632E-03  0.240554E-03  0.407031E-03  0.518849E-03
  0.507633E-03  0.398238E-03  0.241104E-03  0.825740E-04  0.691585E-06 -0.119687E-03
 -0.571281E-03 -0.150052E-02 -0.310887E-02 -0.555203E-02 -0.868320E-02 -0.119814E-01
 -0.148164E-01 -0.166086E-01 -0.166947E-01 -0.145183E-01 -0.104088E-01 -0.586511E-02
 -0.601681E-02 -0.294791E-02 -0.117569E-02 -0.363386E-03 -0.103149E-03  0.934499E-04
  0.140873E-03  0.155707E-03  0.126341E-03  0.682136E-04  0.113626E-04 -0.284060E-04
 -0.236163E-03 -0.765036E-03 -0.177122E-02 -0.346398E-02 -0.600790E-02 -0.930057E-02
 -0.128509E-01 -0.158870E-01 -0.175391E-01 -0.170710E-01 -0.143373E-01 -0.101722E-01
 -0.601681E-02 -0.590394E-02 -0.322468E-02 -0.151643E-02 -0.583633E-03 -0.167256E-03
 -0.398242E-04  0.302992E-04  0.422317E-04  0.411442E-04  0.226628E-04  0.695153E-05
 -0.581385E-04 -0.284685E-03 -0.820041E-03 -0.183122E-02 -0.352611E-02 -0.605509E-02
 -0.930186E-02 -0.127369E-01 -0.155022E-01 -0.167093E-01 -0.158435E-01 -0.131121E-01
 -0.943041E-02 -0.590394E-02 -0.565682E-02 -0.329485E-02 -0.169125E-02 -0.737274E-03
 -0.252620E-03 -0.595473E-04 -0.123231E-04  0.161269E-04  0.242588E-04  0.199873E-04
  0.127493E-04 -0.541604E-04 -0.245770E-03 -0.728966E-03 -0.168119E-02 -0.330066E-02
 -0.570575E-02 -0.874398E-02 -0.118654E-01 -0.142416E-01 -0.151173E-01 -0.141880E-01
 -0.117729E-01 -0.865323E-02 -0.565682E-02 -0.525001E-02 -0.315828E-02 -0.169526E-02
 -0.782895E-03 -0.284968E-03 -0.666040E-04 -0.798013E-05  0.175110E-04  0.398529E-04
  0.475721E-04  0.362598E-04 -0.408785E-04 -0.155063E-03 -0.528017E-03 -0.134752E-02
 -0.280826E-02 -0.501341E-02 -0.780040E-02 -0.106338E-01 -0.127450E-01 -0.134852E-01
 -0.126470E-01 -0.105489E-01 -0.785584E-02 -0.525001E-02 -0.470163E-02 -0.286633E-02
 -0.155640E-02 -0.711042E-03 -0.235959E-03 -0.355109E-04  0.721670E-05  0.574598E-04
  0.122622E-03  0.163696E-03  0.156265E-03  0.111205E-03  0.109367E-03 -0.305243E-03
 -0.902499E-03 -0.211713E-02 -0.407848E-02 -0.664520E-02 -0.928962E-02 -0.112566E-01
 -0.119419E-01 -0.111922E-01 -0.933489E-02 -0.697523E-02 -0.470163E-02 -0.406241E-02
 -0.245550E-02 -0.128745E-02 -0.527164E-03 -0.121367E-03 -0.931045E-06  0.681911E-04
  0.223331E-03  0.393089E-03  0.519328E-03  0.544989E-03  0.447901E-03  0.292577E-03
  0.237022E-03 -0.508621E-03 -0.137488E-02 -0.303314E-02 -0.537991E-02 -0.786920E-02
 -0.972158E-02 -0.103632E-01 -0.970130E-02 -0.807666E-02 -0.603202E-02 -0.406241E-02
 -0.335655E-02 -0.194777E-02 -0.923427E-03 -0.286115E-03 -0.162094E-04  0.620143E-04
  0.325232E-03  0.694816E-03  0.107597E-02  0.137207E-02  0.147717E-02  0.133158E-02
  0.983149E-03  0.588761E-03  0.402759E-03 -0.772518E-03 -0.200423E-02 -0.405054E-02
 -0.634067E-02 -0.807019E-02 -0.869921E-02 -0.817390E-02 -0.680786E-02 -0.506217E-02
 -0.335655E-02 -0.262478E-02 -0.140726E-02 -0.546699E-03 -0.834227E-04  0.385874E-04
  0.380037E-03  0.999187E-03  0.175306E-02  0.249752E-02  0.307102E-02  0.330656E-02
  0.310922E-02  0.250968E-02  0.165383E-02  0.825833E-03  0.489596E-03 -0.111066E-02
 -0.272672E-02 -0.475288E-02 -0.636310E-02 -0.702743E-02 -0.667952E-02 -0.557199E-02
 -0.409501E-02 -0.262478E-02 -0.195007E-02 -0.916668E-03 -0.239181E-03  0.259446E-04
  0.357899E-03  0.120955E-02  0.242489E-02  0.378698E-02  0.506565E-02  0.601225E-02
  0.639978E-02  0.611012E-02  0.515487E-02  0.365734E-02  0.194723E-02  0.662399E-03
 -0.484280E-03 -0.155443E-02 -0.326921E-02 -0.476339E-02 -0.547999E-02 -0.530705E-02
 -0.443527E-02 -0.320221E-02 -0.195007E-02 -0.138979E-02 -0.519215E-03 -0.748125E-04
  0.275492E-03  0.125709E-02  0.294636E-02  0.506863E-02  0.727134E-02  0.920006E-02
  0.105205E-01  0.109823E-01  0.104728E-01  0.897793E-02  0.659204E-02  0.373763E-02
  0.130484E-02  0.221336E-03 -0.700985E-03 -0.208441E-02 -0.344770E-02 -0.419452E-02
 -0.416506E-02 -0.349390E-02 -0.246600E-02 -0.138979E-02 -0.948798E-03 -0.251971E-03
  0.182197E-03  0.109205E-02  0.313182E-02  0.608616E-02  0.944329E-02  0.126176E-01
  0.151118E-01  0.165831E-01  0.168573E-01  0.158615E-01  0.135372E-01  0.997603E-02
  0.579001E-02  0.218337E-02  0.270516E-03 -0.232093E-03 -0.130779E-02 -0.252560E-02
 -0.326771E-02 -0.333437E-02 -0.280312E-02 -0.190787E-02 -0.948798E-03 -0.640069E-03
 -0.184873E-03  0.707476E-03  0.271807E-02  0.633283E-02  0.110316E-01  0.158403E-01
  0.198185E-01  0.224213E-01  0.235125E-01  0.231292E-01  0.212372E-01  0.177299E-01
  0.127963E-01  0.735005E-02  0.285695E-02  0.426024E-03 -0.676725E-04 -0.916308E-03
 -0.199967E-02 -0.270967E-02 -0.281707E-02 -0.234990E-02 -0.151275E-02 -0.640069E-03
 -0.483034E-03  0.324101E-03  0.165210E-02  0.520867E-02  0.109793E-01  0.178014E-01
  0.239069E-01  0.280161E-01  0.298756E-01  0.298562E-01  0.282619E-01  0.250530E-01
  0.201453E-01  0.139759E-01  0.775474E-02  0.297330E-02  0.487584E-03 -0.696836E-04
 -0.808520E-03 -0.179594E-02 -0.246541E-02 -0.257413E-02 -0.211652E-02 -0.128838E-02
 -0.483034E-03 -0.423060E-03  0.553833E-03  0.289587E-02  0.847395E-02  0.168459E-01
  0.256892E-01  0.322693E-01  0.353772E-01  0.355606E-01  0.338404E-01  0.306748E-01
  0.260004E-01  0.198986E-01  0.131048E-01  0.690743E-02  0.251650E-02  0.401870E-03
 -0.148669E-03 -0.890935E-03 -0.183879E-02 -0.248967E-02 -0.259370E-02 -0.211253E-02
 -0.123321E-02 -0.423060E-03 -0.356818E-03  0.807648E-03  0.441847E-02  0.123210E-01
  0.231095E-01  0.329635E-01  0.386043E-01  0.396409E-01  0.376909E-01  0.341968E-01
  0.295744E-01  0.238023E-01  0.172121E-01  0.106762E-01  0.526154E-02  0.174082E-02
  0.247527E-03 -0.291415E-03 -0.112556E-02 -0.210574E-02 -0.278405E-02 -0.287819E-02
 -0.230705E-02 -0.126768E-02 -0.356818E-03 -0.237428E-03  0.117188E-02  0.619535E-02
  0.160666E-01  0.280079E-01  0.371053E-01  0.405427E-01  0.392384E-01  0.355353E-01
  0.308287E-01  0.253944E-01  0.193407E-01  0.131650E-01  0.762494E-02  0.342096E-02
  0.950704E-03  0.145423E-03 -0.535205E-03 -0.153339E-02 -0.262196E-02 -0.334143E-02
 -0.333718E-02 -0.253185E-02 -0.122953E-02 -0.237428E-03  0.117463E-03  0.164806E-02
  0.768594E-02  0.181877E-01  0.292854E-01  0.361092E-01  0.371285E-01  0.342626E-01
  0.298318E-01  0.248507E-01  0.195093E-01  0.140507E-01  0.896093E-02  0.475619E-02
  0.183621E-02  0.369904E-03 -0.198584E-03 -0.939565E-03 -0.216507E-02 -0.338797E-02
 -0.403298E-02 -0.371215E-02 -0.252497E-02 -0.100245E-02  0.117463E-03  0.495858E-04
  0.184055E-02  0.779016E-02  0.171451E-01  0.258585E-01  0.301143E-01  0.296219E-01
  0.264633E-01  0.223779E-01  0.179863E-01  0.134851E-01  0.917114E-02  0.541018E-02
  0.252209E-02  0.739802E-03  0.110732E-03 -0.468541E-03 -0.155998E-02 -0.304194E-02
 -0.430058E-02 -0.461816E-02 -0.378375E-02 -0.225962E-02 -0.723674E-03  0.495858E-04
 -0.268818E-11  0.130314E-02  0.598291E-02  0.130575E-01  0.190903E-01  0.215388E-01
  0.207094E-01  0.182023E-01  0.150880E-01  0.117525E-01  0.842380E-02  0.536954E-02
  0.284087E-02  0.105970E-02  0.174933E-03 -0.179990E-03 -0.973878E-03 -0.242170E-02
 -0.411962E-02 -0.522385E-02 -0.504106E-02 -0.377339E-02 -0.216178E-02 -0.724235E-03
 -0.268818E-11 -0.319322E-05  0.101281E-02  0.463823E-02  0.972568E-02  0.135835E-01
  0.147728E-01  0.138628E-01  0.119480E-01  0.965130E-02  0.724307E-02  0.493013E-02
  0.289841E-02  0.131511E-02  0.341581E-03 -0.600094E-04 -0.450385E-03 -0.148690E-02
 -0.304561E-02 -0.455272E-02 -0.510592E-02 -0.439715E-02 -0.305147E-02 -0.173705E-02
 -0.622324E-03 -0.319322E-05 -0.280139E-03  0.242067E-03  0.231001E-02  0.553881E-02
  0.798219E-02  0.877229E-02  0.829129E-02  0.714038E-02  0.567700E-02  0.412014E-02
  0.264021E-02  0.137259E-02  0.462379E-03  0.489860E-04 -0.195391E-03 -0.936504E-03
 -0.232700E-02 -0.415829E-02 -0.563018E-02 -0.588603E-02 -0.501317E-02 -0.381062E-02
 -0.269091E-02 -0.147318E-02 -0.280139E-03 -0.132614E-02 -0.135120E-03  0.790138E-03
  0.252726E-02  0.397763E-02  0.456729E-02  0.443448E-02  0.384570E-02  0.300965E-02
  0.209590E-02  0.122753E-02  0.510878E-03  0.814622E-04 -0.610444E-04 -0.525237E-03
 -0.158231E-02 -0.331460E-02 -0.539080E-02 -0.693021E-02 -0.729178E-02 -0.678101E-02
 -0.603123E-02 -0.506277E-02 -0.342156E-02 -0.132614E-02 -0.276716E-02 -0.637397E-03
  0.234373E-03  0.884827E-03  0.163457E-02  0.205177E-02  0.209406E-02  0.184128E-02
  0.141443E-02  0.928523E-03  0.464818E-03  0.115496E-03 -0.837137E-05 -0.257767E-03
 -0.971123E-03 -0.231162E-02 -0.435085E-02 -0.670501E-02 -0.859099E-02 -0.955936E-02
 -0.981975E-02 -0.956392E-02 -0.838985E-02 -0.588338E-02 -0.276716E-02 -0.383271E-02
 -0.127485E-02 -0.268836E-03  0.231876E-03  0.511430E-03  0.759129E-03  0.845227E-03
  0.762722E-03  0.573600E-03  0.342640E-03  0.123487E-03  0.247164E-05 -0.100780E-03
 -0.533647E-03 -0.143718E-02 -0.299898E-02 -0.528392E-02 -0.795874E-02 -0.104014E-01
 -0.121809E-01 -0.131349E-01 -0.129283E-01 -0.110338E-01 -0.757306E-02 -0.383271E-02
 -0.428663E-02 -0.178724E-02 -0.549018E-03 -0.135546E-03  0.114958E-03  0.210979E-03
  0.275139E-03  0.263841E-03  0.195812E-03  0.995410E-04  0.146814E-04 -0.240024E-04
 -0.242069E-03 -0.786657E-03 -0.180880E-02 -0.349987E-02 -0.593526E-02 -0.886628E-02
 -0.117605E-01 -0.140375E-01 -0.151265E-01 -0.144505E-01 -0.118177E-01 -0.796512E-02
 -0.428663E-02 -0.436940E-02 -0.214113E-02 -0.865205E-03 -0.265031E-03 -0.617178E-04
  0.417381E-04  0.661767E-04  0.750251E-04  0.582553E-04  0.236045E-04 -0.323913E-05
 -0.738441E-04 -0.343175E-03 -0.931677E-03 -0.199489E-02 -0.371586E-02 -0.617277E-02
 -0.915634E-02 -0.121292E-01 -0.143587E-01 -0.151134E-01 -0.139565E-01 -0.111218E-01
 -0.755981E-02 -0.436940E-02 -0.427928E-02 -0.232405E-02 -0.108959E-02 -0.416670E-03
 -0.117103E-03 -0.232908E-04  0.131089E-04  0.209035E-04  0.211219E-04  0.985778E-05
 -0.112392E-04 -0.924566E-04 -0.356288E-03 -0.927977E-03 -0.196279E-02 -0.362516E-02
 -0.597144E-02 -0.878217E-02 -0.115008E-01 -0.133780E-01 -0.137736E-01 -0.124897E-01
 -0.993836E-02 -0.694442E-02 -0.427928E-02 -0.404710E-02 -0.232676E-02 -0.118095E-02
 -0.508378E-03 -0.170652E-03 -0.374173E-04 -0.622270E-05  0.117399E-04  0.195160E-04
  0.160024E-04 -0.142134E-04 -0.696006E-04 -0.281788E-03 -0.782504E-03 -0.172623E-02
 -0.325690E-02 -0.540169E-02 -0.792648E-02 -0.102963E-01 -0.118451E-01 -0.120799E-01
 -0.109312E-01 -0.879066E-02 -0.630316E-02 -0.404710E-02 -0.368727E-02 -0.218862E-02
 -0.115668E-02 -0.518346E-03 -0.175297E-03 -0.324449E-04  0.395794E-05  0.234706E-04
  0.483883E-04  0.545422E-04  0.401486E-04 -0.457433E-04 -0.166450E-03 -0.540690E-03
 -0.132776E-02 -0.266557E-02 -0.457187E-02 -0.681824E-02 -0.891001E-02 -0.102617E-01
 -0.104716E-01 -0.950924E-02 -0.771303E-02 -0.561388E-02 -0.368727E-02 -0.324999E-02
 -0.195124E-02 -0.102671E-02 -0.435109E-03 -0.117971E-03 -0.663516E-05  0.217673E-04
  0.916832E-04  0.164561E-03  0.201974E-03  0.181096E-03  0.122345E-03  0.113238E-03
 -0.299483E-03 -0.856296E-03 -0.194109E-02 -0.359209E-02 -0.560060E-02 -0.749629E-02
 -0.873300E-02 -0.895683E-02 -0.816090E-02 -0.665306E-02 -0.488584E-02 -0.324999E-02
 -0.275977E-02 -0.162178E-02 -0.795566E-03 -0.275575E-03 -0.334799E-04  0.142880E-04
  0.137791E-03  0.323289E-03  0.503552E-03  0.615994E-03  0.607851E-03  0.475012E-03
  0.295700E-03  0.224392E-03 -0.464182E-03 -0.121819E-02 -0.257317E-02 -0.434816E-02
 -0.607923E-02 -0.723426E-02 -0.749288E-02 -0.686722E-02 -0.563032E-02 -0.415536E-02
 -0.275977E-02 -0.222342E-02 -0.122478E-02 -0.511450E-03 -0.106415E-03  0.533355E-05
  0.164997E-03  0.499500E-03  0.906452E-03  0.128588E-02  0.153565E-02  0.156460E-02
  0.134265E-02  0.940152E-03  0.523580E-03  0.335396E-03 -0.649313E-03 -0.162873E-02
 -0.313305E-02 -0.469876E-02 -0.579424E-02 -0.611437E-02 -0.566553E-02 -0.466955E-02
 -0.343049E-02 -0.222342E-02 -0.169061E-02 -0.830607E-03 -0.252553E-03 -0.156379E-04
  0.152235E-03  0.629598E-03  0.133376E-02  0.211044E-02  0.280269E-02  0.325381E-02
  0.332864E-02  0.297499E-02  0.226357E-02  0.138071E-02  0.622131E-03 -0.359657E-03
 -0.863372E-03 -0.204544E-02 -0.343500E-02 -0.448224E-02 -0.487148E-02 -0.458132E-02
 -0.378303E-02 -0.273461E-02 -0.169061E-02 -0.122909E-02 -0.498258E-03 -0.831059E-04
  0.111338E-03  0.660794E-03  0.167657E-02  0.296412E-02  0.427675E-02  0.537931E-02
  0.605260E-02  0.612384E-02  0.553718E-02  0.438068E-02  0.287173E-02  0.137931E-02
  0.406635E-03 -0.352470E-03 -0.117441E-02 -0.237350E-02 -0.336500E-02 -0.380959E-02
 -0.365215E-02 -0.301934E-02 -0.213255E-02 -0.122909E-02 -0.859867E-03 -0.254621E-03
  0.871062E-04  0.581242E-03  0.183190E-02  0.368570E-02  0.578990E-02  0.775957E-02
  0.927055E-02  0.100622E-01  0.996691E-02  0.896289E-02  0.717119E-02  0.485375E-02
  0.248661E-02  0.734953E-03 -0.112615E-03 -0.579170E-03 -0.158338E-02 -0.250732E-02
 -0.299085E-02 -0.294135E-02 -0.243758E-02 -0.166573E-02 -0.859867E-03 -0.581844E-03
 -0.151628E-03  0.408640E-03  0.167951E-02  0.401525E-02  0.704753E-02  0.101475E-01
  0.127351E-01  0.144318E-01  0.150339E-01  0.144697E-01  0.127853E-01  0.101399E-01
  0.686972E-02  0.360247E-02  0.115469E-02  0.760004E-04 -0.259327E-03 -0.109528E-02
 -0.195371E-02 -0.246008E-02 -0.247935E-02 -0.204400E-02 -0.132259E-02 -0.581844E-03
 -0.421081E-03  0.248164E-03  0.114456E-02  0.356088E-02  0.742125E-02  0.119411E-01
  0.160251E-01  0.188826E-01  0.202475E-01  0.201662E-01  0.187486E-01  0.161079E-01
  0.124535E-01  0.824920E-02  0.428101E-02  0.141769E-02  0.115928E-03 -0.152165E-03
 -0.882425E-03 -0.169256E-02 -0.220245E-02 -0.224159E-02 -0.181417E-02 -0.109762E-02
 -0.421081E-03 -0.373929E-03  0.490319E-03  0.221660E-02  0.617023E-02  0.119688E-01
  0.180678E-01  0.227311E-01  0.251436E-01  0.254825E-01  0.242213E-01  0.216460E-01
  0.179104E-01  0.133159E-01  0.847730E-02  0.424471E-02  0.137461E-02  0.131210E-03
 -0.179075E-03 -0.881978E-03 -0.167057E-02 -0.217569E-02 -0.220721E-02 -0.175521E-02
 -0.101115E-02 -0.373929E-03 -0.356634E-03  0.753245E-03  0.350062E-02  0.932789E-02
  0.171823E-01  0.244122E-01  0.287666E-01  0.298769E-01  0.286656E-01  0.260076E-01
  0.222549E-01  0.175979E-01  0.124605E-01  0.753151E-02  0.355744E-02  0.106248E-02
  0.108749E-03 -0.296491E-03 -0.104272E-02 -0.185051E-02 -0.237184E-02 -0.239391E-02
 -0.188405E-02 -0.104131E-02 -0.356634E-03 -0.293757E-03  0.103678E-02  0.497946E-02
  0.126748E-01  0.219915E-01  0.292236E-01  0.322158E-01  0.315276E-01  0.287743E-01
  0.249653E-01  0.204076E-01  0.153495E-01  0.102889E-01  0.583848E-02  0.252699E-02
  0.643497E-03  0.104542E-03 -0.505198E-03 -0.135799E-02 -0.224566E-02 -0.281032E-02
 -0.278607E-02 -0.212689E-02 -0.108159E-02 -0.293757E-03 -0.195983E-03  0.143234E-02
  0.648775E-02  0.153293E-01  0.247226E-01  0.306174E-01  0.317032E-01  0.294750E-01
  0.257772E-01  0.214548E-01  0.167485E-01  0.119595E-01  0.754717E-02  0.394915E-02
  0.148849E-02  0.288872E-03 -0.189317E-03 -0.839173E-03 -0.186699E-02 -0.288027E-02
 -0.343039E-02 -0.320534E-02 -0.225607E-02 -0.982406E-03 -0.195983E-03  0.130380E-03
  0.181688E-02  0.734198E-02  0.159532E-01  0.239146E-01  0.277824E-01  0.273288E-01
  0.244335E-01  0.206515E-01  0.165532E-01  0.123548E-01  0.835992E-02  0.490936E-02
  0.228284E-02  0.675916E-03  0.113480E-03 -0.422120E-03 -0.135385E-02 -0.260758E-02
 -0.368316E-02 -0.399435E-02 -0.334255E-02 -0.206634E-02 -0.722733E-03  0.130380E-03
  0.765112E-04  0.174044E-02  0.670349E-02  0.138041E-01  0.196113E-01  0.217567E-01
  0.206896E-01  0.180402E-01  0.148582E-01  0.115120E-01  0.821979E-02  0.523416E-02
  0.278327E-02  0.106280E-02  0.198921E-03 -0.167184E-03 -0.847452E-03 -0.209289E-02
 -0.353897E-02 -0.445805E-02 -0.426320E-02 -0.313769E-02 -0.172542E-02 -0.509843E-03
  0.765112E-04 -0.319322E-05  0.101281E-02  0.463823E-02  0.972568E-02  0.135835E-01
  0.147728E-01  0.138628E-01  0.119480E-01  0.965130E-02  0.724307E-02  0.493013E-02
  0.289841E-02  0.131511E-02  0.341581E-03 -0.600094E-04 -0.450385E-03 -0.148690E-02
 -0.304561E-02 -0.455272E-02 -0.510592E-02 -0.439715E-02 -0.305147E-02 -0.173705E-02
 -0.622324E-03 -0.319322E-05 -0.483129E-04  0.616369E-03  0.311146E-02  0.639952E-02
  0.864502E-02  0.918693E-02  0.851503E-02  0.724328E-02  0.571501E-02  0.413631E-02
  0.266364E-02  0.141326E-02  0.509548E-03  0.758484E-04 -0.160406E-03 -0.771452E-03
 -0.193156E-02 -0.344968E-02 -0.464002E-02 -0.477281E-02 -0.393000E-02 -0.280558E-02
 -0.177804E-02 -0.777020E-03 -0.483129E-04 -0.371945E-03  0.904286E-04  0.141954E-02
  0.343262E-02  0.484980E-02  0.526854E-02  0.494528E-02  0.419659E-02  0.324438E-02
  0.225438E-02  0.133739E-02  0.585509E-03  0.120915E-03 -0.500885E-04 -0.425789E-03
 -0.132137E-02 -0.278021E-02 -0.446248E-02 -0.554878E-02 -0.550871E-02 -0.472057E-02
 -0.382948E-02 -0.291851E-02 -0.168290E-02 -0.371945E-03 -0.118684E-02 -0.855253E-04
  0.429209E-03  0.145891E-02  0.229900E-02  0.264757E-02  0.256317E-02  0.218257E-02
  0.165063E-02  0.108478E-02  0.560268E-03  0.163265E-03 -0.118046E-04 -0.200800E-03
 -0.811573E-03 -0.197329E-02 -0.370372E-02 -0.555687E-02 -0.675636E-02 -0.698935E-02
 -0.665454E-02 -0.610604E-02 -0.509675E-02 -0.327489E-02 -0.118684E-02 -0.209908E-02
 -0.448946E-03  0.104156E-03  0.445364E-03  0.875843E-03  0.113295E-02  0.115983E-02
  0.998671E-03  0.735967E-03  0.442669E-03  0.173156E-03  0.132174E-04 -0.733440E-04
 -0.447701E-03 -0.125227E-02 -0.264489E-02 -0.461476E-02 -0.671990E-02 -0.832590E-02
 -0.918927E-02 -0.944729E-02 -0.902246E-02 -0.748929E-02 -0.484484E-02 -0.209908E-02
 -0.270989E-02 -0.893217E-03 -0.175770E-03  0.918401E-04  0.237826E-03  0.386496E-03
  0.438331E-03  0.388666E-03  0.277699E-03  0.141947E-03  0.262869E-04 -0.149242E-04
 -0.210688E-03 -0.713664E-03 -0.166311E-02 -0.322128E-02 -0.537473E-02 -0.776117E-02
 -0.985899E-02 -0.113088E-01 -0.118495E-01 -0.110983E-01 -0.884130E-02 -0.564378E-02
 -0.270989E-02 -0.298956E-02 -0.127107E-02 -0.406612E-03 -0.867336E-04  0.431175E-04
  0.912909E-04  0.127755E-03  0.123350E-03  0.857280E-04  0.313815E-04 -0.451046E-06
 -0.722437E-04 -0.343733E-03 -0.920981E-03 -0.194915E-02 -0.357898E-02 -0.580686E-02
 -0.834317E-02 -0.106906E-01 -0.123071E-01 -0.126722E-01 -0.114405E-01 -0.881350E-02
 -0.566250E-02 -0.298956E-02 -0.306284E-02 -0.152432E-02 -0.631123E-03 -0.196666E-03
 -0.398006E-04  0.142256E-04  0.253489E-04  0.319616E-04  0.233349E-04  0.536303E-05
 -0.126340E-04 -0.117050E-03 -0.412263E-03 -0.100770E-02 -0.204115E-02 -0.364076E-02
 -0.579938E-02 -0.825359E-02 -0.104916E-01 -0.118909E-01 -0.119370E-01 -0.105033E-01
 -0.802849E-02 -0.531912E-02 -0.306284E-02 -0.298741E-02 -0.162517E-02 -0.767637E-03
 -0.298498E-03 -0.861031E-04 -0.152524E-04  0.472353E-05  0.986430E-05  0.105773E-04
  0.483686E-05 -0.188518E-04 -0.116220E-03 -0.389370E-03 -0.949555E-03 -0.192266E-02
 -0.341020E-02 -0.538625E-02 -0.758919E-02 -0.952308E-02 -0.106200E-01 -0.104988E-01
 -0.918065E-02 -0.710216E-02 -0.487822E-02 -0.298741E-02 -0.278708E-02 -0.159691E-02
 -0.812648E-03 -0.351652E-03 -0.117249E-03 -0.234224E-04  0.280136E-05  0.975677E-05
  0.170959E-04  0.139869E-04 -0.156386E-04 -0.763951E-04 -0.287738E-03 -0.763638E-03
 -0.162312E-02 -0.294864E-02 -0.469728E-02 -0.661365E-02 -0.825126E-02 -0.914106E-02
 -0.901163E-02 -0.792071E-02 -0.622183E-02 -0.438555E-02 -0.278708E-02 -0.251330E-02
 -0.148614E-02 -0.779421E-03 -0.339532E-03 -0.104482E-03 -0.128674E-04  0.511843E-05
  0.318300E-04  0.577777E-04  0.611663E-04  0.431822E-04 -0.465396E-04 -0.160440E-03
 -0.504427E-03 -0.120199E-02 -0.233355E-02 -0.385385E-02 -0.552249E-02 -0.694208E-02
 -0.771862E-02 -0.763982E-02 -0.676242E-02 -0.537457E-02 -0.385646E-02 -0.251330E-02
 -0.220125E-02 -0.130414E-02 -0.662002E-03 -0.255393E-03 -0.509002E-04  0.531431E-06
  0.447844E-04  0.127028E-03  0.200698E-03  0.228553E-03  0.193888E-03  0.124970E-03
  0.107022E-03 -0.268510E-03 -0.750204E-03 -0.165065E-02 -0.294035E-02 -0.439831E-02
 -0.565964E-02 -0.637409E-02 -0.636402E-02 -0.568404E-02 -0.457208E-02 -0.333061E-02
 -0.220125E-02 -0.184300E-02 -0.104543E-02 -0.472028E-03 -0.130015E-03 -0.319374E-05
  0.506754E-04  0.209008E-03  0.407046E-03  0.577500E-03  0.660651E-03  0.618128E-03
  0.461494E-03  0.271750E-03  0.191197E-03 -0.390518E-03 -0.100579E-02 -0.204194E-02
 -0.330237E-02 -0.444060E-02 -0.512795E-02 -0.520465E-02 -0.471370E-02 -0.383931E-02
 -0.281530E-02 -0.184300E-02 -0.144828E-02 -0.747739E-03 -0.265975E-03 -0.295946E-04
  0.427006E-04  0.273419E-03  0.642798E-03  0.104578E-02  0.137988E-02  0.155550E-02
  0.150813E-02  0.123233E-02  0.811608E-03  0.412854E-03  0.249102E-03 -0.510886E-03
 -0.125548E-02 -0.231597E-02 -0.335113E-02 -0.403213E-02 -0.419680E-02 -0.386371E-02
 -0.316805E-02 -0.230003E-02 -0.144828E-02 -0.107601E-02 -0.476201E-03 -0.106566E-03
  0.302577E-04  0.285630E-03  0.836320E-03  0.155341E-02  0.227023E-02  0.283720E-02
  0.312758E-02  0.304673E-02  0.258184E-02  0.183908E-02  0.102560E-02  0.406719E-03
 -0.241805E-03 -0.654393E-03 -0.150483E-02 -0.243962E-02 -0.311146E-02 -0.334355E-02
 -0.312806E-02 -0.256449E-02 -0.181922E-02 -0.107601E-02 -0.772968E-03 -0.266197E-03
 -0.468251E-04  0.244140E-03  0.921849E-03  0.198722E-02  0.320842E-02  0.433446E-02
  0.516358E-02  0.552963E-02  0.531925E-02  0.454222E-02  0.335505E-02  0.201675E-02
  0.853279E-03  0.205600E-03 -0.264107E-03 -0.898069E-03 -0.172495E-02 -0.237517E-02
 -0.265678E-02 -0.253509E-02 -0.207748E-02 -0.143000E-02 -0.772968E-03 -0.540028E-03
 -0.142165E-03  0.181669E-03  0.863366E-03  0.222375E-02  0.402829E-02  0.588247E-02
  0.743461E-02  0.844027E-02  0.872321E-02  0.819865E-02  0.694097E-02  0.517384E-02
  0.321379E-02  0.145938E-02  0.334085E-03 -0.662863E-04 -0.501508E-03 -0.122381E-02
 -0.185122E-02 -0.217579E-02 -0.212775E-02 -0.173974E-02 -0.114472E-02 -0.540028E-03
 -0.382932E-03  0.163526E-03  0.644311E-03  0.209345E-02  0.443852E-02  0.718759E-02
  0.970288E-02  0.115270E-01  0.124370E-01  0.123406E-01  0.112536E-01  0.933858E-02
  0.688618E-02  0.427976E-02  0.199516E-02  0.502125E-03  0.597284E-05 -0.299675E-03
 -0.945627E-03 -0.156121E-02 -0.191783E-02 -0.190647E-02 -0.153475E-02 -0.944761E-03
 -0.382932E-03 -0.326089E-03  0.359667E-03  0.147108E-02  0.398883E-02  0.761488E-02
  0.114169E-01  0.144148E-01  0.161173E-01  0.164916E-01  0.156628E-01  0.137874E-01
  0.111052E-01  0.797135E-02  0.484095E-02  0.223200E-02  0.581655E-03  0.104234E-04
 -0.252787E-03 -0.869212E-03 -0.148606E-02 -0.185682E-02 -0.184395E-02 -0.144844E-02
 -0.838159E-03 -0.326089E-03 -0.338261E-03  0.641276E-03  0.253971E-02  0.640201E-02
  0.114923E-01  0.161995E-01  0.192046E-01  0.202190E-01  0.196238E-01  0.178243E-01
  0.150836E-01  0.116928E-01  0.806911E-02  0.470455E-02  0.207775E-02  0.516743E-03
  0.328970E-04 -0.318597E-03 -0.954004E-03 -0.158907E-02 -0.197115E-02 -0.194400E-02
 -0.150432E-02 -0.839486E-03 -0.338261E-03 -0.336630E-03  0.907752E-03  0.372237E-02
  0.905344E-02  0.154330E-01  0.204747E-01  0.227975E-01  0.226517E-01  0.209180E-01
  0.181880E-01  0.147536E-01  0.109410E-01  0.719600E-02  0.396764E-02  0.162131E-02
  0.352125E-03 -0.776086E-04 -0.476398E-03 -0.117618E-02 -0.186571E-02 -0.228116E-02
 -0.223295E-02 -0.170452E-02 -0.906403E-03 -0.336630E-03 -0.286132E-03  0.118216E-02
  0.493522E-02  0.114532E-01  0.183823E-01  0.228683E-01  0.239613E-01  0.225987E-01
  0.199678E-01  0.166573E-01  0.129375E-01  0.914896E-02  0.569539E-02  0.291514E-02
  0.104940E-02  0.184889E-03 -0.178055E-03 -0.733980E-03 -0.155478E-02 -0.234933E-02
 -0.279452E-02 -0.265313E-02 -0.193751E-02 -0.934858E-03 -0.286132E-03  0.221164E-03
  0.148946E-02  0.589471E-02  0.127736E-01  0.191525E-01  0.223625E-01  0.222087E-01
  0.200689E-01  0.170856E-01  0.137161E-01  0.102051E-01  0.686669E-02  0.400332E-02
  0.184144E-02  0.536352E-03  0.100794E-03 -0.373336E-03 -0.113085E-02 -0.213625E-02
 -0.303173E-02 -0.337905E-02 -0.297142E-02 -0.198435E-02 -0.827079E-03  0.221164E-03
  0.172132E-03  0.163432E-02  0.602194E-02  0.122029E-01  0.171937E-01  0.190378E-01
  0.181558E-01  0.159025E-01  0.131357E-01  0.101786E-01  0.725756E-02  0.461929E-02
  0.246399E-02  0.953815E-03  0.193876E-03 -0.154015E-03 -0.708783E-03 -0.172060E-02
 -0.291850E-02 -0.376107E-02 -0.375698E-02 -0.294683E-02 -0.176386E-02 -0.631022E-03
  0.172132E-03  0.927024E-04  0.131328E-02  0.495040E-02  0.973711E-02  0.131889E-01
  0.141227E-01  0.131565E-01  0.113007E-01  0.910758E-02  0.682414E-02  0.464930E-02
  0.275313E-02  0.127727E-02  0.359674E-03  0.700058E-04 -0.375068E-03 -0.122640E-02
 -0.251421E-02 -0.379067E-02 -0.432720E-02 -0.382107E-02 -0.271386E-02 -0.154557E-02
 -0.535320E-03  0.927024E-04 -0.483129E-04  0.616369E-03  0.311146E-02  0.639952E-02
  0.864502E-02  0.918693E-02  0.851503E-02  0.724328E-02  0.571501E-02  0.413631E-02
  0.266364E-02  0.141326E-02  0.509548E-03  0.758484E-04 -0.160406E-03 -0.771452E-03
 -0.193156E-02 -0.344968E-02 -0.464002E-02 -0.477281E-02 -0.393000E-02 -0.280558E-02
 -0.177804E-02 -0.777020E-03 -0.483129E-04 -0.155615E-03  0.325168E-03  0.184457E-02
  0.375181E-02  0.496644E-02  0.523985E-02  0.485181E-02  0.409061E-02  0.315660E-02
  0.220525E-02  0.133538E-02  0.619050E-03  0.157945E-03 -0.475560E-04 -0.327072E-03
 -0.103655E-02 -0.220164E-02 -0.356835E-02 -0.449324E-02 -0.450925E-02 -0.385304E-02
 -0.302293E-02 -0.213335E-02 -0.106033E-02 -0.155615E-03 -0.442887E-03  0.217103E-04
  0.756212E-03  0.187802E-02  0.265630E-02  0.290729E-02  0.273770E-02  0.229657E-02
  0.172993E-02  0.114992E-02  0.619879E-03  0.210270E-03  0.252311E-04 -0.146679E-03
 -0.631107E-03 -0.156837E-02 -0.296090E-02 -0.442687E-02 -0.530328E-02 -0.532303E-02
 -0.483848E-02 -0.418916E-02 -0.324954E-02 -0.183357E-02 -0.442887E-03 -0.972611E-03
 -0.654222E-04  0.178781E-03  0.716809E-03  0.118416E-02  0.140371E-02  0.136940E-02
  0.115054E-02  0.844269E-03  0.520100E-03  0.224920E-03  0.348746E-04 -0.481213E-04
 -0.340438E-03 -0.999243E-03 -0.214518E-02 -0.374024E-02 -0.535542E-02 -0.641963E-02
 -0.677608E-02 -0.665269E-02 -0.609685E-02 -0.482763E-02 -0.285627E-02 -0.972611E-03
 -0.150038E-02 -0.328743E-03  0.319941E-04  0.171319E-03  0.405598E-03  0.563642E-03
  0.587659E-03  0.500630E-03  0.355424E-03  0.190541E-03  0.486930E-04 -0.778197E-05
 -0.156443E-03 -0.574824E-03 -0.137878E-02 -0.269695E-02 -0.446918E-02 -0.630469E-02
 -0.773337E-02 -0.854652E-02 -0.868128E-02 -0.792301E-02 -0.610093E-02 -0.364107E-02
 -0.150038E-02 -0.186736E-02 -0.649495E-03 -0.134544E-03  0.250252E-04  0.864933E-04
  0.169827E-03  0.203241E-03  0.180851E-03  0.122154E-03  0.482990E-04  0.983651E-06
 -0.539728E-04 -0.289075E-03 -0.795578E-03 -0.170213E-02 -0.312680E-02 -0.500904E-02
 -0.702398E-02 -0.874072E-02 -0.979580E-02 -0.986739E-02 -0.871368E-02 -0.649444E-02
 -0.393425E-02 -0.186736E-02 -0.206682E-02 -0.921699E-03 -0.317079E-03 -0.673034E-04
  0.117414E-04  0.293981E-04  0.501613E-04  0.511738E-04  0.321497E-04  0.555271E-05
 -0.983822E-05 -0.112122E-03 -0.392075E-03 -0.944941E-03 -0.189287E-02 -0.333011E-02
 -0.519837E-02 -0.721645E-02 -0.894652E-02 -0.991463E-02 -0.974100E-02 -0.835195E-02
 -0.615487E-02 -0.386814E-02 -0.206682E-02 -0.212153E-02 -0.108391E-02 -0.466879E-03
 -0.154801E-03 -0.323950E-04 -0.400826E-05  0.715791E-05  0.117558E-04  0.764363E-05
  0.118706E-05 -0.247007E-04 -0.139285E-03 -0.425042E-03 -0.976861E-03 -0.189864E-02
 -0.325606E-02 -0.498479E-02 -0.682292E-02 -0.834065E-02 -0.907704E-02 -0.874595E-02
 -0.742030E-02 -0.553456E-02 -0.364182E-02 -0.212153E-02 -0.204872E-02 -0.113023E-02
 -0.548801E-03 -0.223346E-03 -0.684832E-04 -0.119955E-04  0.146852E-05  0.473755E-05
  0.556239E-05  0.360898E-05 -0.232535E-04 -0.120135E-03 -0.374559E-03 -0.878483E-03
 -0.171929E-02 -0.293988E-02 -0.446623E-02 -0.605043E-02 -0.730664E-02 -0.785911E-02
 -0.752546E-02 -0.641739E-02 -0.488477E-02 -0.333388E-02 -0.204872E-02 -0.189524E-02