
     Program PWSCF v.6.4.1 starts on 15Jul2021 at 15:39:16 

     This program is part of the open-source Quantum ESPRESSO suite
     for quantum simulation of materials; please cite
         "P. Giannozzi et al., J. Phys.:Condens. Matter 21 395502 (2009);
         "P. Giannozzi et al., J. Phys.:Condens. Matter 29 465901 (2017);
          URL http://www.quantum-espresso.org", 
     in publications or presentations arising from this work. More details at
     http://www.quantum-espresso.org/quote

     Parallel version (MPI & OpenMP), running on      12 processor cores
     Number of MPI processes:                 1
     Threads/MPI process:                    12

     MPI processes distributed on     1 nodes
     Waiting for input...
     Reading input from standard input

     Current dimensions of program PWSCF are:
     Max number of different atomic species (ntypx) = 10
     Max number of k-points (npk) =  40000
     Max angular momentum in pseudopotentials (lmaxx) =  3

     Subspace diagonalization in iterative solution of the eigenvalue problem:
     a serial algorithm will be used


     G-vector sticks info
     --------------------
     sticks:   dense  smooth     PW     G-vecs:    dense   smooth      PW
     Sum         253     253     85                 2741     2741     537



     bravais-lattice index     =            2
     lattice parameter (alat)  =      10.2800  a.u.
     unit-cell volume          =     271.5935 (a.u.)^3
     number of atoms/cell      =            2
     number of atomic types    =            1
     number of electrons       =         8.00
     number of Kohn-Sham states=            4
     kinetic-energy cutoff     =      18.0000  Ry
     charge density cutoff     =      72.0000  Ry
     convergence threshold     =      1.0E-06
     mixing beta               =       0.7000
     number of iterations used =            8  plain     mixing
     Exchange-correlation      = SLA PZ NOGX NOGC ( 1  1  0  0 0 0)

     celldm(1)=  10.280000  celldm(2)=   0.000000  celldm(3)=   0.000000
     celldm(4)=   0.000000  celldm(5)=   0.000000  celldm(6)=   0.000000

     crystal axes: (cart. coord. in units of alat)
               a(1) = (  -0.500000   0.000000   0.500000 )  
               a(2) = (   0.000000   0.500000   0.500000 )  
               a(3) = (  -0.500000   0.500000   0.000000 )  

     reciprocal axes: (cart. coord. in units 2 pi/alat)
               b(1) = ( -1.000000 -1.000000  1.000000 )  
               b(2) = (  1.000000  1.000000  1.000000 )  
               b(3) = ( -1.000000  1.000000 -1.000000 )  


     PseudoPot. # 1 for Si read from file:
     ./\Si.pz-vbc.UPF
     MD5 check sum: 9f25e6ff280f3123e9b3a84715b2e9c9
     Pseudo is Norm-conserving, Zval =  4.0
     Generated by new atomic code, or converted to UPF format
     Using radial grid of  431 points,  2 beta functions with: 
                l(1) =   0
                l(2) =   1

     atomic species   valence    mass     pseudopotential
        Si             4.00    28.08600     Si( 1.00)

     48 Sym. Ops., with inversion, found (24 have fractional translation)



   Cartesian axes

     site n.     atom                  positions (alat units)
         1           Si  tau(   1) = (   0.0000000   0.0000000   0.0000000  )
         2           Si  tau(   2) = (   0.2500000   0.2500000   0.2500000  )

     number of k points=    10
                       cart. coord. in units 2pi/alat
        k(    1) = (  -0.1250000   0.1250000   0.1250000), wk =   0.0625000
        k(    2) = (  -0.3750000   0.3750000  -0.1250000), wk =   0.1875000
        k(    3) = (   0.3750000  -0.3750000   0.6250000), wk =   0.1875000
        k(    4) = (   0.1250000  -0.1250000   0.3750000), wk =   0.1875000
        k(    5) = (  -0.1250000   0.6250000   0.1250000), wk =   0.1875000
        k(    6) = (   0.6250000  -0.1250000   0.8750000), wk =   0.3750000
        k(    7) = (   0.3750000   0.1250000   0.6250000), wk =   0.3750000
        k(    8) = (  -0.1250000  -0.8750000   0.1250000), wk =   0.1875000
        k(    9) = (  -0.3750000   0.3750000   0.3750000), wk =   0.0625000
        k(   10) = (   0.3750000  -0.3750000   1.1250000), wk =   0.1875000

     Dense  grid:     2741 G-vectors     FFT dimensions: (  20,  20,  20)

     Estimated max dynamical RAM per process >       2.25 MB

     Initial potential from superposition of free atoms

     starting charge    7.99901, renormalised to    8.00000
     Starting wfcs are    8 randomized atomic wfcs

     total cpu time spent up to now is        0.2 secs

     Self-consistent Calculation

     iteration #  1     ecut=    18.00 Ry     beta= 0.70
     Davidson diagonalization with overlap
     ethr =  1.00E-02,  avg # of iterations =  2.0

     Threshold (ethr) on eigenvalues was too large:
     Diagonalizing with lowered threshold

     Davidson diagonalization with overlap
     ethr =  7.44E-04,  avg # of iterations =  1.0

     total cpu time spent up to now is        0.2 secs

     total energy              =     -15.84095770 Ry
     Harris-Foulkes estimate   =     -15.86068567 Ry
     estimated scf accuracy    <       0.05892089 Ry

     iteration #  2     ecut=    18.00 Ry     beta= 0.70
     Davidson diagonalization with overlap
     ethr =  7.37E-04,  avg # of iterations =  1.0

     total cpu time spent up to now is        0.3 secs

     total energy              =     -15.84378983 Ry
     Harris-Foulkes estimate   =     -15.84410024 Ry
     estimated scf accuracy    <       0.00213756 Ry

     iteration #  3     ecut=    18.00 Ry     beta= 0.70
     Davidson diagonalization with overlap
     ethr =  2.67E-05,  avg # of iterations =  2.5

     total cpu time spent up to now is        0.3 secs

     total energy              =     -15.84420055 Ry
     Harris-Foulkes estimate   =     -15.84423118 Ry
     estimated scf accuracy    <       0.00006732 Ry

     iteration #  4     ecut=    18.00 Ry     beta= 0.70
     Davidson diagonalization with overlap
     ethr =  8.41E-07,  avg # of iterations =  2.3

     total cpu time spent up to now is        0.3 secs

     total energy              =     -15.84421609 Ry
     Harris-Foulkes estimate   =     -15.84421901 Ry
     estimated scf accuracy    <       0.00000638 Ry

     iteration #  5     ecut=    18.00 Ry     beta= 0.70
     Davidson diagonalization with overlap
     ethr =  7.97E-08,  avg # of iterations =  2.0

     total cpu time spent up to now is        0.4 secs

     End of self-consistent calculation

          k =-0.1250 0.1250 0.1250 (   335 PWs)   bands (ev):

    -5.6895   4.4120   5.7209   5.7209

          k =-0.3750 0.3750-0.1250 (   348 PWs)   bands (ev):

    -4.6477   1.3944   3.6926   5.2318

          k = 0.3750-0.3750 0.6250 (   354 PWs)   bands (ev):

    -3.4770  -0.7304   3.7238   4.4437

          k = 0.1250-0.1250 0.3750 (   344 PWs)   bands (ev):

    -5.1551   2.7927   4.6891   4.7629

          k =-0.1250 0.6250 0.1250 (   345 PWs)   bands (ev):

    -4.1077   1.0933   3.3318   3.7970

          k = 0.6250-0.1250 0.8750 (   356 PWs)   bands (ev):

    -2.4331  -0.8873   1.9328   3.0393

          k = 0.3750 0.1250 0.6250 (   350 PWs)   bands (ev):

    -3.6812   0.1894   2.6801   4.0744

          k =-0.1250-0.8750 0.1250 (   352 PWs)   bands (ev):

    -2.6128  -0.7825   2.5616   3.3210

          k =-0.3750 0.3750 0.3750 (   353 PWs)   bands (ev):

    -4.2051   0.0702   4.9189   4.9189

          k = 0.3750-0.3750 1.1250 (   358 PWs)   bands (ev):

    -2.9757  -0.6091   2.0041   4.1193

     highest occupied level (ev):     5.7209

!    total energy              =     -15.84421705 Ry
     Harris-Foulkes estimate   =     -15.84421708 Ry
     estimated scf accuracy    <       0.00000006 Ry

     The total energy is the sum of the following terms:

     one-electron contribution =       4.61758066 Ry
     hartree contribution      =       1.09597348 Ry
     xc contribution           =      -4.78952817 Ry
     ewald contribution        =     -16.76824302 Ry

     convergence has been achieved in   5 iterations

     Writing output data file silicon.save\

     init_run     :      0.19s CPU      0.06s WALL (       1 calls)
     electrons    :      1.25s CPU      0.23s WALL (       1 calls)

     Called by init_run:
     wfcinit      :      0.16s CPU      0.03s WALL (       1 calls)
     potinit      :      0.00s CPU      0.00s WALL (       1 calls)
     hinit0       :      0.03s CPU      0.03s WALL (       1 calls)

     Called by electrons:
     c_bands      :      0.89s CPU      0.17s WALL (       6 calls)
     sum_band     :      0.27s CPU      0.04s WALL (       6 calls)
     v_of_rho     :      0.09s CPU      0.00s WALL (       6 calls)
     mix_rho      :      0.00s CPU      0.00s WALL (       6 calls)

     Called by c_bands:
     init_us_2    :      0.08s CPU      0.02s WALL (     130 calls)
     cegterg      :      0.89s CPU      0.15s WALL (      60 calls)

     Called by sum_band:

     Called by *egterg:
     h_psi        :      0.97s CPU      0.14s WALL (     178 calls)
     g_psi        :      0.08s CPU      0.01s WALL (     108 calls)
     cdiaghg      :      0.00s CPU      0.01s WALL (     158 calls)

     Called by h_psi:
     h_psi:pot    :      0.91s CPU      0.13s WALL (     178 calls)
     h_psi:calbec :      0.00s CPU      0.00s WALL (     178 calls)
     vloc_psi     :      0.91s CPU      0.13s WALL (     178 calls)
     add_vuspsi   :      0.00s CPU      0.00s WALL (     178 calls)

     General routines
     calbec       :      0.00s CPU      0.00s WALL (     178 calls)
     fft          :      0.00s CPU      0.00s WALL (      18 calls)
     ffts         :      0.00s CPU      0.00s WALL (       6 calls)
     fftw         :      0.09s CPU      0.04s WALL (    1646 calls)

     Parallel routines

     PWSCF        :      1.67s CPU      0.41s WALL


   This run was terminated on:  15:39:17  15Jul2021            

=------------------------------------------------------------------------------=
   JOB DONE.
=------------------------------------------------------------------------------=
