
     Program PWSCF v.6.4.1 starts on  2Aug2021 at 14: 8:21 

     This program is part of the open-source Quantum ESPRESSO suite
     for quantum simulation of materials; please cite
         "P. Giannozzi et al., J. Phys.:Condens. Matter 21 395502 (2009);
         "P. Giannozzi et al., J. Phys.:Condens. Matter 29 465901 (2017);
          URL http://www.quantum-espresso.org", 
     in publications or presentations arising from this work. More details at
     http://www.quantum-espresso.org/quote

     Parallel version (MPI & OpenMP), running on      12 processor cores
     Number of MPI processes:                 1
     Threads/MPI process:                    12

     MPI processes distributed on     1 nodes
     Waiting for input...
     Reading input from standard input
Warning: card CONV_THR = 1.0D-12 ignored
Warning: card &IONS ignored
Warning: card / ignored

     Current dimensions of program PWSCF are:
     Max number of different atomic species (ntypx) = 10
     Max number of k-points (npk) =  40000
     Max angular momentum in pseudopotentials (lmaxx) =  3

     gamma-point specific algorithms are used

     Subspace diagonalization in iterative solution of the eigenvalue problem:
     a serial algorithm will be used


     G-vector sticks info
     --------------------
     sticks:   dense  smooth     PW     G-vecs:    dense   smooth      PW
     Sum       28649   28649   7153              3647655  3647655  455863



     bravais-lattice index     =            1
     lattice parameter (alat)  =      30.0000  a.u.
     unit-cell volume          =   27000.0000 (a.u.)^3
     number of atoms/cell      =            1
     number of atomic types    =            1
     number of electrons       =         4.00 (up:   3.00, down:   1.00)
     number of Kohn-Sham states=            7
     kinetic-energy cutoff     =     100.0000  Ry
     charge density cutoff     =     400.0000  Ry
     convergence threshold     =      1.0E-06
     mixing beta               =       0.7000
     number of iterations used =            8  plain     mixing
     Exchange-correlation      = SLA PZ NOGX NOGC ( 1  1  0  0 0 0)

     celldm(1)=  30.000000  celldm(2)=   0.000000  celldm(3)=   0.000000
     celldm(4)=   0.000000  celldm(5)=   0.000000  celldm(6)=   0.000000

     crystal axes: (cart. coord. in units of alat)
               a(1) = (   1.000000   0.000000   0.000000 )  
               a(2) = (   0.000000   1.000000   0.000000 )  
               a(3) = (   0.000000   0.000000   1.000000 )  

     reciprocal axes: (cart. coord. in units 2 pi/alat)
               b(1) = (  1.000000  0.000000  0.000000 )  
               b(2) = (  0.000000  1.000000  0.000000 )  
               b(3) = (  0.000000  0.000000  1.000000 )  


     PseudoPot. # 1 for C  read from file:
     ./\C.pz-vbc.UPF
     MD5 check sum: f697e42eaa1e52b77fcf7925dd36a1dd
     Pseudo is Norm-conserving, Zval =  4.0
     Generated by new atomic code, or converted to UPF format
     Using radial grid of  269 points,  1 beta functions with: 
                l(1) =   0

     atomic species   valence    mass     pseudopotential
        C              4.00     1.00000     C ( 1.00)

     Starting magnetic structure 
     atomic species   magnetization
        C            0.000

     48 Sym. Ops., with inversion, found



   Cartesian axes

     site n.     atom                  positions (alat units)
         1           C   tau(   1) = (   0.0000000   0.0000000   0.0000000  )

     number of k points=     1  gaussian smearing, width (Ry)=  0.0010
                       cart. coord. in units 2pi/alat
        k(    1) = (   0.0000000   0.0000000   0.0000000), wk =   1.0000000

     Dense  grid:  1823828 G-vectors     FFT dimensions: ( 192, 192, 192)

     Estimated max dynamical RAM per process >       2.29 GB
     Generating pointlists ...
     new r_m :   0.4125 (alat units) 12.3750 (a.u.) for type    1

     Initial potential from superposition of free atoms

     starting charge    3.99997, renormalised to    4.00000

     negative rho (up, down):  7.883E-02 0.000E+00
     Starting wfcs are    4 randomized atomic wfcs +    3 random wfcs

     total cpu time spent up to now is        3.3 secs

     Self-consistent Calculation

     iteration #  1     ecut=   100.00 Ry     beta= 0.70
     Davidson diagonalization with overlap
     ethr =  1.00E-02,  avg # of iterations =  6.0

     Threshold (ethr) on eigenvalues was too large:
     Diagonalizing with lowered threshold

     Davidson diagonalization with overlap
     ethr =  6.36E-04,  avg # of iterations =  5.0

     negative rho (up, down):  2.115E-02 1.498E-02

     total cpu time spent up to now is       16.2 secs

     total energy              =     -10.72078144 Ry
     Harris-Foulkes estimate   =     -10.64202175 Ry
     estimated scf accuracy    <       0.02542737 Ry

     total magnetization       =     2.00 Bohr mag/cell
     absolute magnetization    =     2.00 Bohr mag/cell

     iteration #  2     ecut=   100.00 Ry     beta= 0.70
     Davidson diagonalization with overlap
     ethr =  6.36E-04,  avg # of iterations =  1.0

     negative rho (up, down):  1.861E-04 6.524E-02

     total cpu time spent up to now is       21.4 secs

     total energy              =     -10.73252523 Ry
     Harris-Foulkes estimate   =     -10.72273437 Ry
     estimated scf accuracy    <       0.00402145 Ry

     total magnetization       =     2.00 Bohr mag/cell
     absolute magnetization    =     2.00 Bohr mag/cell

     iteration #  3     ecut=   100.00 Ry     beta= 0.70
     Davidson diagonalization with overlap
     ethr =  1.01E-04,  avg # of iterations = 12.0

     negative rho (up, down):  4.538E-04 4.979E-02

     total cpu time spent up to now is       30.3 secs

     total energy              =     -10.73316604 Ry
     Harris-Foulkes estimate   =     -10.73318797 Ry
     estimated scf accuracy    <       0.00011131 Ry

     total magnetization       =     2.00 Bohr mag/cell
     absolute magnetization    =     2.00 Bohr mag/cell

     iteration #  4     ecut=   100.00 Ry     beta= 0.70
     Davidson diagonalization with overlap
     ethr =  2.78E-06,  avg # of iterations =  7.0

     negative rho (up, down):  1.675E-04 5.395E-02

     total cpu time spent up to now is       38.6 secs

     total energy              =     -10.73321803 Ry
     Harris-Foulkes estimate   =     -10.73320643 Ry
     estimated scf accuracy    <       0.00000461 Ry

     total magnetization       =     2.00 Bohr mag/cell
     absolute magnetization    =     2.00 Bohr mag/cell

     iteration #  5     ecut=   100.00 Ry     beta= 0.70
     Davidson diagonalization with overlap
     ethr =  1.15E-07,  avg # of iterations =  1.5

     negative rho (up, down):  9.395E-07 7.516E-02

     total cpu time spent up to now is       43.9 secs

     total energy              =     -10.73322026 Ry
     Harris-Foulkes estimate   =     -10.73321886 Ry
     estimated scf accuracy    <       0.00000576 Ry

     total magnetization       =     2.00 Bohr mag/cell
     absolute magnetization    =     2.00 Bohr mag/cell

     iteration #  6     ecut=   100.00 Ry     beta= 0.70
     Davidson diagonalization with overlap
     ethr =  1.15E-07,  avg # of iterations = 13.0

     negative rho (up, down):  0.000E+00 8.901E-06

     Magnetic moment per site:
     atom:    1    charge:    4.0000    magn:    2.0000    constr:    0.0000

     total cpu time spent up to now is       52.0 secs

     End of self-consistent calculation

 ------ SPIN UP ------------


          k = 0.0000 0.0000 0.0000 (227932 PWs)   bands (ev):

   -14.4272  -6.1633  -6.1633  -6.1633  -0.2014   0.3013   0.4955

 ------ SPIN DOWN ----------


          k = 0.0000 0.0000 0.0000 (227932 PWs)   bands (ev):

   -11.7377  -3.7089  -3.7081  -3.7079  -0.1130   0.3972   0.5393

     the spin up/dw Fermi energies are    -6.1592   -6.9440 ev

!    total energy              =     -10.73322060 Ry
     Harris-Foulkes estimate   =     -10.73322058 Ry
     estimated scf accuracy    <       0.00000003 Ry

     The total energy is the sum of the following terms:

     one-electron contribution =     -13.63970877 Ry
     hartree contribution      =       7.27180340 Ry
     xc contribution           =      -2.85131859 Ry
     ewald contribution        =      -1.51322532 Ry
     smearing contrib. (-TS)   =      -0.00077131 Ry

     total magnetization       =     2.00 Bohr mag/cell
     absolute magnetization    =     2.00 Bohr mag/cell

     convergence has been achieved in   6 iterations

     Writing output data file diamond.save\

     init_run     :     16.08s CPU      3.28s WALL (       1 calls)
     electrons    :    306.00s CPU     48.92s WALL (       1 calls)

     Called by init_run:
     wfcinit      :      6.80s CPU      1.17s WALL (       1 calls)
     potinit      :      7.73s CPU      0.86s WALL (       1 calls)
     hinit0       :      0.67s CPU      0.38s WALL (       1 calls)

     Called by electrons:
     c_bands      :    176.98s CPU     29.96s WALL (       7 calls)
     sum_band     :     47.39s CPU      7.51s WALL (       7 calls)
     v_of_rho     :     56.70s CPU      6.17s WALL (       7 calls)
     mix_rho      :     24.64s CPU      4.66s WALL (       7 calls)

     Called by c_bands:
     init_us_2    :      0.38s CPU      0.04s WALL (      30 calls)
     regterg      :    175.62s CPU     29.76s WALL (      14 calls)

     Called by sum_band:

     Called by *egterg:
     h_psi        :    158.58s CPU     26.89s WALL (     107 calls)
     g_psi        :      1.45s CPU      0.14s WALL (      91 calls)
     rdiaghg      :      0.38s CPU      0.08s WALL (     103 calls)

     Called by h_psi:
     h_psi:pot    :    156.84s CPU     26.68s WALL (     107 calls)
     h_psi:calbec :      0.92s CPU      0.17s WALL (     107 calls)
     vloc_psi     :    155.64s CPU     26.43s WALL (     107 calls)
     add_vuspsi   :      0.28s CPU      0.08s WALL (     107 calls)

     General routines
     calbec       :      0.84s CPU      0.17s WALL (     107 calls)
     fft          :      7.91s CPU      1.35s WALL (      33 calls)
     ffts         :      3.64s CPU      0.60s WALL (      14 calls)
     fftw         :    124.19s CPU     20.92s WALL (     500 calls)

     Parallel routines

     PWSCF        :   5m22.27s CPU     52.64s WALL


   This run was terminated on:  14: 9:14   2Aug2021            

=------------------------------------------------------------------------------=
   JOB DONE.
=------------------------------------------------------------------------------=
