
     Program PWSCF v.6.4.1 starts on  2Aug2021 at 14: 0: 3 

     This program is part of the open-source Quantum ESPRESSO suite
     for quantum simulation of materials; please cite
         "P. Giannozzi et al., J. Phys.:Condens. Matter 21 395502 (2009);
         "P. Giannozzi et al., J. Phys.:Condens. Matter 29 465901 (2017);
          URL http://www.quantum-espresso.org", 
     in publications or presentations arising from this work. More details at
     http://www.quantum-espresso.org/quote

     Parallel version (MPI & OpenMP), running on      12 processor cores
     Number of MPI processes:                 1
     Threads/MPI process:                    12

     MPI processes distributed on     1 nodes
     Waiting for input...
     Reading input from standard input
Warning: card CONV_THR = 1.0D-12 ignored
Warning: card &IONS ignored
Warning: card / ignored

     Current dimensions of program PWSCF are:
     Max number of different atomic species (ntypx) = 10
     Max number of k-points (npk) =  40000
     Max angular momentum in pseudopotentials (lmaxx) =  3

     Subspace diagonalization in iterative solution of the eigenvalue problem:
     a serial algorithm will be used


     G-vector sticks info
     --------------------
     sticks:   dense  smooth     PW     G-vecs:    dense   smooth      PW
     Sum         613     613    199                10081    10081    1807



     bravais-lattice index     =            2
     lattice parameter (alat)  =       6.7000  a.u.
     unit-cell volume          =      75.1908 (a.u.)^3
     number of atoms/cell      =            2
     number of atomic types    =            1
     number of electrons       =         8.00
     number of Kohn-Sham states=            4
     kinetic-energy cutoff     =     100.0000  Ry
     charge density cutoff     =     400.0000  Ry
     convergence threshold     =      1.0E-06
     mixing beta               =       0.7000
     number of iterations used =            8  plain     mixing
     Exchange-correlation      = SLA PZ NOGX NOGC ( 1  1  0  0 0 0)

     celldm(1)=   6.700000  celldm(2)=   0.000000  celldm(3)=   0.000000
     celldm(4)=   0.000000  celldm(5)=   0.000000  celldm(6)=   0.000000

     crystal axes: (cart. coord. in units of alat)
               a(1) = (  -0.500000   0.000000   0.500000 )  
               a(2) = (   0.000000   0.500000   0.500000 )  
               a(3) = (  -0.500000   0.500000   0.000000 )  

     reciprocal axes: (cart. coord. in units 2 pi/alat)
               b(1) = ( -1.000000 -1.000000  1.000000 )  
               b(2) = (  1.000000  1.000000  1.000000 )  
               b(3) = ( -1.000000  1.000000 -1.000000 )  


     PseudoPot. # 1 for C  read from file:
     ./\C.pz-vbc.UPF
     MD5 check sum: f697e42eaa1e52b77fcf7925dd36a1dd
     Pseudo is Norm-conserving, Zval =  4.0
     Generated by new atomic code, or converted to UPF format
     Using radial grid of  269 points,  1 beta functions with: 
                l(1) =   0

     atomic species   valence    mass     pseudopotential
        C              4.00     1.00000     C ( 1.00)

     48 Sym. Ops., with inversion, found (24 have fractional translation)



   Cartesian axes

     site n.     atom                  positions (alat units)
         1           C   tau(   1) = (   0.0000000   0.0000000   0.0000000  )
         2           C   tau(   2) = (  -0.2500000   0.2500000   0.2500000  )

     number of k points=    10
                       cart. coord. in units 2pi/alat
        k(    1) = (  -0.1250000   0.1250000   0.1250000), wk =   0.0625000
        k(    2) = (  -0.3750000   0.3750000  -0.1250000), wk =   0.1875000
        k(    3) = (   0.3750000  -0.3750000   0.6250000), wk =   0.1875000
        k(    4) = (   0.1250000  -0.1250000   0.3750000), wk =   0.1875000
        k(    5) = (  -0.1250000   0.6250000   0.1250000), wk =   0.1875000
        k(    6) = (   0.6250000  -0.1250000   0.8750000), wk =   0.3750000
        k(    7) = (   0.3750000   0.1250000   0.6250000), wk =   0.3750000
        k(    8) = (  -0.1250000  -0.8750000   0.1250000), wk =   0.1875000
        k(    9) = (  -0.3750000   0.3750000   0.3750000), wk =   0.0625000
        k(   10) = (   0.3750000  -0.3750000   1.1250000), wk =   0.1875000

     Dense  grid:    10081 G-vectors     FFT dimensions: (  32,  32,  32)

     Estimated max dynamical RAM per process >       7.98 MB

     Initial potential from superposition of free atoms

     starting charge    7.99994, renormalised to    8.00000
     Starting wfcs are    8 randomized atomic wfcs

     total cpu time spent up to now is        0.2 secs

     Self-consistent Calculation

     iteration #  1     ecut=   100.00 Ry     beta= 0.70
     Davidson diagonalization with overlap
     ethr =  1.00E-02,  avg # of iterations =  2.0

     total cpu time spent up to now is        0.3 secs

     total energy              =     -22.78758824 Ry
     Harris-Foulkes estimate   =     -22.85962337 Ry
     estimated scf accuracy    <       0.13607090 Ry

     iteration #  2     ecut=   100.00 Ry     beta= 0.70
     Davidson diagonalization with overlap
     ethr =  1.70E-03,  avg # of iterations =  2.0

     total cpu time spent up to now is        0.3 secs

     total energy              =     -22.80098274 Ry
     Harris-Foulkes estimate   =     -22.80141846 Ry
     estimated scf accuracy    <       0.00174116 Ry

     iteration #  3     ecut=   100.00 Ry     beta= 0.70
     Davidson diagonalization with overlap
     ethr =  2.18E-05,  avg # of iterations =  2.3

     total cpu time spent up to now is        0.4 secs

     total energy              =     -22.80136313 Ry
     Harris-Foulkes estimate   =     -22.80137254 Ry
     estimated scf accuracy    <       0.00006533 Ry

     iteration #  4     ecut=   100.00 Ry     beta= 0.70
     Davidson diagonalization with overlap
     ethr =  8.17E-07,  avg # of iterations =  2.7

     total cpu time spent up to now is        0.5 secs

     total energy              =     -22.80138141 Ry
     Harris-Foulkes estimate   =     -22.80138334 Ry
     estimated scf accuracy    <       0.00000199 Ry

     iteration #  5     ecut=   100.00 Ry     beta= 0.70
     Davidson diagonalization with overlap
     ethr =  2.49E-08,  avg # of iterations =  3.0

     total cpu time spent up to now is        0.6 secs

     End of self-consistent calculation

          k =-0.1250 0.1250 0.1250 (  1279 PWs)   bands (ev):

    -7.5856  11.0192  12.7970  12.7970

          k =-0.3750 0.3750-0.1250 (  1277 PWs)   bands (ev):

    -5.3107   5.6326   9.0196  11.5840

          k = 0.3750-0.3750 0.6250 (  1264 PWs)   bands (ev):

    -2.2013   0.7422   9.2575   9.8489

          k = 0.1250-0.1250 0.3750 (  1284 PWs)   bands (ev):

    -6.4395   8.3265  10.5063  11.4308

          k =-0.1250 0.6250 0.1250 (  1276 PWs)   bands (ev):

    -4.1899   5.9439   8.1644   8.4791

          k = 0.6250-0.1250 0.8750 (  1268 PWs)   bands (ev):

    -0.1657   2.2997   4.8679   6.9321

          k = 0.3750 0.1250 0.6250 (  1262 PWs)   bands (ev):

    -3.1196   3.5505   7.0960   9.2814

          k =-0.1250-0.8750 0.1250 (  1269 PWs)   bands (ev):

    -0.9635   2.8649   5.9163   7.3836

          k =-0.3750 0.3750 0.3750 (  1275 PWs)   bands (ev):

    -4.2101   2.6876  10.8758  10.8758

          k = 0.3750-0.3750 1.1250 (  1268 PWs)   bands (ev):

    -1.1992   1.7571   5.6064   9.1492

     highest occupied level (ev):    12.7970

!    total energy              =     -22.80138219 Ry
     Harris-Foulkes estimate   =     -22.80138218 Ry
     estimated scf accuracy    <          9.2E-09 Ry

     The total energy is the sum of the following terms:

     one-electron contribution =       8.15276945 Ry
     hartree contribution      =       1.85952572 Ry
     xc contribution           =      -7.08568669 Ry
     ewald contribution        =     -25.72799066 Ry

     convergence has been achieved in   5 iterations

     Writing output data file diamond.save\

     init_run     :      0.31s CPU      0.09s WALL (       1 calls)
     electrons    :      2.45s CPU      0.43s WALL (       1 calls)

     Called by init_run:
     wfcinit      :      0.28s CPU      0.06s WALL (       1 calls)
     potinit      :      0.00s CPU      0.00s WALL (       1 calls)
     hinit0       :      0.03s CPU      0.03s WALL (       1 calls)

     Called by electrons:
     c_bands      :      1.78s CPU      0.32s WALL (       5 calls)
     sum_band     :      0.41s CPU      0.07s WALL (       5 calls)
     v_of_rho     :      0.17s CPU      0.02s WALL (       6 calls)
     mix_rho      :      0.00s CPU      0.00s WALL (       5 calls)

     Called by c_bands:
     init_us_2    :      0.00s CPU      0.00s WALL (     110 calls)
     cegterg      :      1.78s CPU      0.31s WALL (      50 calls)

     Called by sum_band:

     Called by *egterg:
     h_psi        :      1.59s CPU      0.30s WALL (     180 calls)
     g_psi        :      0.19s CPU      0.03s WALL (     120 calls)
     cdiaghg      :      0.09s CPU      0.00s WALL (     170 calls)

     Called by h_psi:
     h_psi:pot    :      1.59s CPU      0.29s WALL (     180 calls)
     h_psi:calbec :      0.00s CPU      0.00s WALL (     180 calls)
     vloc_psi     :      1.59s CPU      0.29s WALL (     180 calls)
     add_vuspsi   :      0.00s CPU      0.00s WALL (     180 calls)

     General routines
     calbec       :      0.00s CPU      0.00s WALL (     180 calls)
     fft          :      0.00s CPU      0.00s WALL (      17 calls)
     ffts         :      0.00s CPU      0.00s WALL (       5 calls)
     fftw         :      0.66s CPU      0.10s WALL (    1512 calls)

     Parallel routines

     PWSCF        :      2.91s CPU      0.63s WALL


   This run was terminated on:  14: 0: 3   2Aug2021            

=------------------------------------------------------------------------------=
   JOB DONE.
=------------------------------------------------------------------------------=
