
     Program PHONON v.6.4.1 starts on 31Jul2021 at 14:18: 2 

     This program is part of the open-source Quantum ESPRESSO suite
     for quantum simulation of materials; please cite
         "P. Giannozzi et al., J. Phys.:Condens. Matter 21 395502 (2009);
         "P. Giannozzi et al., J. Phys.:Condens. Matter 29 465901 (2017);
          URL http://www.quantum-espresso.org", 
     in publications or presentations arising from this work. More details at
     http://www.quantum-espresso.org/quote

     Parallel version (MPI & OpenMP), running on      12 processor cores
     Number of MPI processes:                 1
     Threads/MPI process:                    12

     MPI processes distributed on     1 nodes

     Reading data from directory:
     ./\diamond.save\

     IMPORTANT: XC functional enforced from input :
     Exchange-correlation      = PZ ( 1  1  0  0 0 0)
     Any further DFT definition will be discarded
     Please, verify this is what you really want


     G-vector sticks info
     --------------------
     sticks:   dense  smooth     PW     G-vecs:    dense   smooth      PW
     Sum         595     595    199                 9841     9841    1807



     Dynamical matrices for ( 4, 4, 4)  uniform grid of q-points
     (   8 q-points):
       N         xq(1)         xq(2)         xq(3) 
       1   0.000000000   0.000000000   0.000000000
       2  -0.250000000   0.250000000  -0.250000000
       3   0.500000000  -0.500000000   0.500000000
       4   0.000000000   0.500000000   0.000000000
       5   0.750000000  -0.250000000   0.750000000
       6   0.500000000   0.000000000   0.500000000
       7   0.000000000  -1.000000000   0.000000000
       8  -0.500000000  -1.000000000   0.000000000

     Calculation of q =    0.0000000   0.0000000   0.0000000

     this is a comment line                                                     

     bravais-lattice index     =            2
     lattice parameter (alat)  =       6.6641  a.u.
     unit-cell volume          =      73.9876 (a.u.)^3
     number of atoms/cell      =            2
     number of atomic types    =            1
     kinetic-energy cut-off    =     100.0000  Ry
     charge density cut-off    =     400.0000  Ry
     convergence threshold     =      1.0E-14
     beta                      =       0.7000
     number of iterations used =            4
     Exchange-correlation      = PZ ( 1  1  0  0 0 0)


     celldm(1)=    6.66407  celldm(2)=    0.00000  celldm(3)=    0.00000
     celldm(4)=    0.00000  celldm(5)=    0.00000  celldm(6)=    0.00000

     crystal axes: (cart. coord. in units of alat)
               a(1) = ( -0.5000  0.0000  0.5000 )  
               a(2) = (  0.0000  0.5000  0.5000 )  
               a(3) = ( -0.5000  0.5000  0.0000 )  

     reciprocal axes: (cart. coord. in units 2 pi/alat)
               b(1) = ( -1.0000 -1.0000  1.0000 )  
               b(2) = (  1.0000  1.0000  1.0000 )  
               b(3) = ( -1.0000  1.0000 -1.0000 )  


     Atoms inside the unit cell: 

     Cartesian axes

     site n.  atom      mass           positions (alat units)
        1     C   12.0107   tau(    1) = (    0.00000    0.00000    0.00000  )
        2     C   12.0107   tau(    2) = (   -0.25000    0.25000    0.25000  )

     Computing dynamical matrix for 
                    q = (   0.0000000   0.0000000   0.0000000 )

     49 Sym.Ops. (with q -> -q+G )


     G cutoff =  449.9656  (   9841 G-vectors)     FFT grid: ( 32, 32, 32)
     number of k points=    10

     PseudoPot. # 1 for C  read from file:
     ./\C.pz-vbc.UPF
     MD5 check sum: d1c1fc5d9cb49abb76ec42f727807be7
     Pseudo is Norm-conserving, Zval =  4.0
     Generated by new atomic code, or converted to UPF format
     Using radial grid of  269 points,  1 beta functions with: 
                l(1) =   0

     Mode symmetry, O_h (m-3m)  point group:


     Electric field:
     Dielectric constant
     Born effective charges in two ways 


     Atomic displacements:
     There are   2 irreducible representations

     Representation     1      3 modes -T_2g G_25' G_5+  To be done

     Representation     2      3 modes -T_1u G_15  G_4-  To be done



     Alpha used in Ewald sum =   2.8000
     PHONON       :      1.16s CPU      0.34s WALL


     Electric Fields Calculation

      iter #   1 total cpu time :     1.7 secs   av.it.:   5.5
      thresh= 1.000E-02 alpha_mix =  0.700 |ddv_scf|^2 =  1.364E-08

      iter #   2 total cpu time :     2.3 secs   av.it.:  10.1
      thresh= 1.168E-05 alpha_mix =  0.700 |ddv_scf|^2 =  1.405E-10

      iter #   3 total cpu time :     2.9 secs   av.it.:  10.2
      thresh= 1.185E-06 alpha_mix =  0.700 |ddv_scf|^2 =  7.173E-12

      iter #   4 total cpu time :     3.6 secs   av.it.:  10.5
      thresh= 2.678E-07 alpha_mix =  0.700 |ddv_scf|^2 =  1.128E-14

      iter #   5 total cpu time :     4.2 secs   av.it.:   9.9
      thresh= 1.062E-08 alpha_mix =  0.700 |ddv_scf|^2 =  1.062E-18

     End of electric fields calculation

          Dielectric constant in cartesian axis 

          (       5.712807031      -0.000000000      -0.000000000 )
          (       0.000000000       5.712807031       0.000000000 )
          (      -0.000000000       0.000000000       5.712807031 )

          Effective charges (d Force / dE) in cartesian axis

           atom      1   C  
      Ex  (       -0.00239       -0.00000        0.00000 )
      Ey  (       -0.00000       -0.00239       -0.00000 )
      Ez  (       -0.00000       -0.00000       -0.00239 )
           atom      2   C  
      Ex  (       -0.00239        0.00000        0.00000 )
      Ey  (        0.00000       -0.00239       -0.00000 )
      Ez  (        0.00000       -0.00000       -0.00239 )


     Representation #  1 modes #   1  2  3

     Self-consistent Calculation

      iter #   1 total cpu time :     4.8 secs   av.it.:   6.3
      thresh= 1.000E-02 alpha_mix =  0.700 |ddv_scf|^2 =  2.438E-07

      iter #   2 total cpu time :     5.5 secs   av.it.:  10.3
      thresh= 4.937E-05 alpha_mix =  0.700 |ddv_scf|^2 =  6.484E-10

      iter #   3 total cpu time :     6.2 secs   av.it.:  10.0
      thresh= 2.546E-06 alpha_mix =  0.700 |ddv_scf|^2 =  1.539E-11

      iter #   4 total cpu time :     6.8 secs   av.it.:   9.4
      thresh= 3.923E-07 alpha_mix =  0.700 |ddv_scf|^2 =  1.368E-14

      iter #   5 total cpu time :     7.5 secs   av.it.:  10.2
      thresh= 1.170E-08 alpha_mix =  0.700 |ddv_scf|^2 =  1.432E-17

     End of self-consistent calculation

     Convergence has been achieved 


     Representation #  2 modes #   4  5  6

     Self-consistent Calculation

      iter #   1 total cpu time :     8.1 secs   av.it.:   6.3
      thresh= 1.000E-02 alpha_mix =  0.700 |ddv_scf|^2 =  1.579E-07

      iter #   2 total cpu time :     8.7 secs   av.it.:  10.3
      thresh= 3.973E-05 alpha_mix =  0.700 |ddv_scf|^2 =  2.307E-10

      iter #   3 total cpu time :     9.4 secs   av.it.:   9.5
      thresh= 1.519E-06 alpha_mix =  0.700 |ddv_scf|^2 =  2.073E-11

      iter #   4 total cpu time :    10.0 secs   av.it.:   9.7
      thresh= 4.554E-07 alpha_mix =  0.700 |ddv_scf|^2 =  1.193E-14

      iter #   5 total cpu time :    10.9 secs   av.it.:  10.7
      thresh= 1.092E-08 alpha_mix =  0.700 |ddv_scf|^2 =  3.526E-18

     End of self-consistent calculation

     Convergence has been achieved 

     Number of q in the star =    1
     List of q in the star:
          1   0.000000000   0.000000000   0.000000000

          Dielectric constant in cartesian axis 

          (       5.712807031      -0.000000000      -0.000000000 )
          (       0.000000000       5.712807031       0.000000000 )
          (      -0.000000000       0.000000000       5.712807031 )

          Effective charges (d Force / dE) in cartesian axis

           atom      1   C  
      Ex  (       -0.00239       -0.00000        0.00000 )
      Ey  (       -0.00000       -0.00239       -0.00000 )
      Ez  (       -0.00000       -0.00000       -0.00239 )
           atom      2   C  
      Ex  (       -0.00239        0.00000        0.00000 )
      Ey  (        0.00000       -0.00239       -0.00000 )
      Ez  (        0.00000       -0.00000       -0.00239 )

          Effective charges (d P / du) in cartesian axis 

           atom      1   C  
      Px  (       -0.00239       -0.00000        0.00000 )
      Py  (        0.00000       -0.00239       -0.00000 )
      Pz  (        0.00000       -0.00000       -0.00239 )
           atom      2   C  
      Px  (       -0.00239        0.00000        0.00000 )
      Py  (        0.00000       -0.00239       -0.00000 )
      Pz  (        0.00000       -0.00000       -0.00239 )

     Diagonalizing the dynamical matrix

     q = (    0.000000000   0.000000000   0.000000000 ) 

 **************************************************************************
     freq (    1) =      -0.205284 [THz] =      -6.847541 [cm-1]
     freq (    2) =      -0.205284 [THz] =      -6.847541 [cm-1]
     freq (    3) =      -0.205284 [THz] =      -6.847541 [cm-1]
     freq (    4) =      39.905710 [THz] =    1331.111197 [cm-1]
     freq (    5) =      39.905710 [THz] =    1331.111197 [cm-1]
     freq (    6) =      39.905710 [THz] =    1331.111197 [cm-1]
 **************************************************************************

     Mode symmetry, O_h (m-3m)  point group:

     freq (  1 -  3) =         -6.8  [cm-1]   --> T_1u G_15  G_4- I  
     freq (  4 -  6) =       1331.1  [cm-1]   --> T_2g G_25' G_5+ R  

     Calculation of q =   -0.2500000   0.2500000  -0.2500000

     Subspace diagonalization in iterative solution of the eigenvalue problem:
     a serial algorithm will be used


     G-vector sticks info
     --------------------
     sticks:   dense  smooth     PW     G-vecs:    dense   smooth      PW
     Sum         595     595    199                 9841     9841    1917


     Title: 
     this is a comment line                                                     


     bravais-lattice index     =            2
     lattice parameter (alat)  =       6.6641  a.u.
     unit-cell volume          =      73.9876 (a.u.)^3
     number of atoms/cell      =            2
     number of atomic types    =            1
     number of electrons       =         8.00
     number of Kohn-Sham states=            4
     kinetic-energy cutoff     =     100.0000  Ry
     charge density cutoff     =     400.0000  Ry
     Exchange-correlation      = PZ ( 1  1  0  0 0 0)

     celldm(1)=   6.664070  celldm(2)=   0.000000  celldm(3)=   0.000000
     celldm(4)=   0.000000  celldm(5)=   0.000000  celldm(6)=   0.000000

     crystal axes: (cart. coord. in units of alat)
               a(1) = (  -0.500000   0.000000   0.500000 )  
               a(2) = (   0.000000   0.500000   0.500000 )  
               a(3) = (  -0.500000   0.500000   0.000000 )  

     reciprocal axes: (cart. coord. in units 2 pi/alat)
               b(1) = ( -1.000000 -1.000000  1.000000 )  
               b(2) = (  1.000000  1.000000  1.000000 )  
               b(3) = ( -1.000000  1.000000 -1.000000 )  


     PseudoPot. # 1 for C  read from file:
     ./\C.pz-vbc.UPF
     MD5 check sum: d1c1fc5d9cb49abb76ec42f727807be7
     Pseudo is Norm-conserving, Zval =  4.0
     Generated by new atomic code, or converted to UPF format
     Using radial grid of  269 points,  1 beta functions with: 
                l(1) =   0

     atomic species   valence    mass     pseudopotential
        C              4.00    12.01070     C ( 1.00)

     48 Sym. Ops., with inversion, found



   Cartesian axes

     site n.     atom                  positions (alat units)
         1           C   tau(   1) = (   0.0000000   0.0000000   0.0000000  )
         2           C   tau(   2) = (  -0.2500000   0.2500000   0.2500000  )

     number of k points=   120

     Number of k-points >= 100: set verbosity='high' to print them.

     Dense  grid:     9841 G-vectors     FFT dimensions: (  32,  32,  32)

     Estimated max dynamical RAM per process >       4.29 MB

     The potential is recalculated from file :
     ./\_ph0\diamond.save\charge-density

     Starting wfcs are    8 atomic wfcs

     Band Structure Calculation
     Davidson diagonalization with overlap

     ethr =  1.25E-10,  avg # of iterations =  9.4

     total cpu time spent up to now is        3.8 secs

     End of band structure calculation

     Number of k-points >= 100: set verbosity='high' to print the bands.

     highest occupied level (ev):    13.0802

     Writing output data file diamond.save\

     this is a comment line                                                     

     bravais-lattice index     =            2
     lattice parameter (alat)  =       6.6641  a.u.
     unit-cell volume          =      73.9876 (a.u.)^3
     number of atoms/cell      =            2
     number of atomic types    =            1
     kinetic-energy cut-off    =     100.0000  Ry
     charge density cut-off    =     400.0000  Ry
     convergence threshold     =      1.0E-14
     beta                      =       0.7000
     number of iterations used =            4
     Exchange-correlation      = PZ ( 1  1  0  0 0 0)


     celldm(1)=    6.66407  celldm(2)=    0.00000  celldm(3)=    0.00000
     celldm(4)=    0.00000  celldm(5)=    0.00000  celldm(6)=    0.00000

     crystal axes: (cart. coord. in units of alat)
               a(1) = ( -0.5000  0.0000  0.5000 )  
               a(2) = (  0.0000  0.5000  0.5000 )  
               a(3) = ( -0.5000  0.5000  0.0000 )  

     reciprocal axes: (cart. coord. in units 2 pi/alat)
               b(1) = ( -1.0000 -1.0000  1.0000 )  
               b(2) = (  1.0000  1.0000  1.0000 )  
               b(3) = ( -1.0000  1.0000 -1.0000 )  


     Atoms inside the unit cell: 

     Cartesian axes

     site n.  atom      mass           positions (alat units)
        1     C   12.0107   tau(    1) = (    0.00000    0.00000    0.00000  )
        2     C   12.0107   tau(    2) = (   -0.25000    0.25000    0.25000  )

     Computing dynamical matrix for 
                    q = (  -0.2500000   0.2500000  -0.2500000 )

      6 Sym.Ops. (no q -> -q+G )


     G cutoff =  449.9656  (   9841 G-vectors)     FFT grid: ( 32, 32, 32)
     number of k points=   120

     PseudoPot. # 1 for C  read from file:
     ./\C.pz-vbc.UPF
     MD5 check sum: d1c1fc5d9cb49abb76ec42f727807be7
     Pseudo is Norm-conserving, Zval =  4.0
     Generated by new atomic code, or converted to UPF format
     Using radial grid of  269 points,  1 beta functions with: 
                l(1) =   0

     Mode symmetry, C_3v (3m)   point group:


     Atomic displacements:
     There are   4 irreducible representations

     Representation     1      1 modes -A_1  L_1  To be done

     Representation     2      1 modes -A_1  L_1  To be done

     Representation     3      2 modes -E    L_3  To be done

     Representation     4      2 modes -E    L_3  To be done



     Alpha used in Ewald sum =   2.8000
     PHONON       :   1m25.97s CPU     15.02s WALL



     Representation #  1 mode #   1

     Self-consistent Calculation

      iter #   1 total cpu time :    16.3 secs   av.it.:   6.7
      thresh= 1.000E-02 alpha_mix =  0.700 |ddv_scf|^2 =  1.225E-03

      iter #   2 total cpu time :    17.7 secs   av.it.:   8.0
      thresh= 3.500E-03 alpha_mix =  0.700 |ddv_scf|^2 =  4.652E-03

      iter #   3 total cpu time :    19.0 secs   av.it.:   6.7
      thresh= 6.820E-03 alpha_mix =  0.700 |ddv_scf|^2 =  1.202E-07

      iter #   4 total cpu time :    20.5 secs   av.it.:   8.9
      thresh= 3.467E-05 alpha_mix =  0.700 |ddv_scf|^2 =  1.766E-08

      iter #   5 total cpu time :    21.9 secs   av.it.:   8.6
      thresh= 1.329E-05 alpha_mix =  0.700 |ddv_scf|^2 =  8.008E-11

      iter #   6 total cpu time :    24.0 secs   av.it.:   8.9
      thresh= 8.949E-07 alpha_mix =  0.700 |ddv_scf|^2 =  8.947E-12

      iter #   7 total cpu time :    25.5 secs   av.it.:   8.5
      thresh= 2.991E-07 alpha_mix =  0.700 |ddv_scf|^2 =  2.162E-11

      iter #   8 total cpu time :    28.2 secs   av.it.:   7.3
      thresh= 4.649E-07 alpha_mix =  0.700 |ddv_scf|^2 =  9.399E-13

      iter #   9 total cpu time :    29.6 secs   av.it.:   7.5
      thresh= 9.695E-08 alpha_mix =  0.700 |ddv_scf|^2 =  8.984E-13

      iter #  10 total cpu time :    30.9 secs   av.it.:   7.1
      thresh= 9.478E-08 alpha_mix =  0.700 |ddv_scf|^2 =  2.297E-15

     End of self-consistent calculation

     Convergence has been achieved 


     Representation #  2 mode #   2

     Self-consistent Calculation

      iter #   1 total cpu time :    32.4 secs   av.it.:   6.7
      thresh= 1.000E-02 alpha_mix =  0.700 |ddv_scf|^2 =  1.225E-03

      iter #   2 total cpu time :    33.8 secs   av.it.:   8.0
      thresh= 3.500E-03 alpha_mix =  0.700 |ddv_scf|^2 =  4.652E-03

      iter #   3 total cpu time :    35.1 secs   av.it.:   6.7
      thresh= 6.820E-03 alpha_mix =  0.700 |ddv_scf|^2 =  1.202E-07

      iter #   4 total cpu time :    36.7 secs   av.it.:   8.9
      thresh= 3.467E-05 alpha_mix =  0.700 |ddv_scf|^2 =  1.766E-08

      iter #   5 total cpu time :    38.1 secs   av.it.:   8.6
      thresh= 1.329E-05 alpha_mix =  0.700 |ddv_scf|^2 =  8.008E-11

      iter #   6 total cpu time :    39.7 secs   av.it.:   8.9
      thresh= 8.949E-07 alpha_mix =  0.700 |ddv_scf|^2 =  8.947E-12

      iter #   7 total cpu time :    41.2 secs   av.it.:   8.5
      thresh= 2.991E-07 alpha_mix =  0.700 |ddv_scf|^2 =  2.162E-11

      iter #   8 total cpu time :    42.5 secs   av.it.:   7.3
      thresh= 4.649E-07 alpha_mix =  0.700 |ddv_scf|^2 =  9.399E-13

      iter #   9 total cpu time :    43.8 secs   av.it.:   7.5
      thresh= 9.695E-08 alpha_mix =  0.700 |ddv_scf|^2 =  8.984E-13

      iter #  10 total cpu time :    45.1 secs   av.it.:   7.1
      thresh= 9.478E-08 alpha_mix =  0.700 |ddv_scf|^2 =  2.297E-15

     End of self-consistent calculation

     Convergence has been achieved 


     Representation #  3 modes #   3  4

     Self-consistent Calculation

      iter #   1 total cpu time :    47.6 secs   av.it.:   6.3
      thresh= 1.000E-02 alpha_mix =  0.700 |ddv_scf|^2 =  5.623E-07

      iter #   2 total cpu time :    50.7 secs   av.it.:   9.9
      thresh= 7.499E-05 alpha_mix =  0.700 |ddv_scf|^2 =  9.843E-10

      iter #   3 total cpu time :    53.9 secs   av.it.:   9.8
      thresh= 3.137E-06 alpha_mix =  0.700 |ddv_scf|^2 =  4.913E-11

      iter #   4 total cpu time :    58.4 secs   av.it.:   9.2
      thresh= 7.009E-07 alpha_mix =  0.700 |ddv_scf|^2 =  1.377E-12

      iter #   5 total cpu time :    61.4 secs   av.it.:   9.1
      thresh= 1.173E-07 alpha_mix =  0.700 |ddv_scf|^2 =  3.016E-15

     End of self-consistent calculation

     Convergence has been achieved 


     Representation #  4 modes #   5  6

     Self-consistent Calculation

      iter #   1 total cpu time :    63.9 secs   av.it.:   6.2
      thresh= 1.000E-02 alpha_mix =  0.700 |ddv_scf|^2 =  5.624E-07

      iter #   2 total cpu time :    67.1 secs   av.it.:   9.7
      thresh= 7.499E-05 alpha_mix =  0.700 |ddv_scf|^2 =  9.826E-10

      iter #   3 total cpu time :    70.2 secs   av.it.:   9.6
      thresh= 3.135E-06 alpha_mix =  0.700 |ddv_scf|^2 =  4.914E-11

      iter #   4 total cpu time :    73.2 secs   av.it.:   9.1
      thresh= 7.010E-07 alpha_mix =  0.700 |ddv_scf|^2 =  1.372E-12

      iter #   5 total cpu time :    76.1 secs   av.it.:   8.9
      thresh= 1.171E-07 alpha_mix =  0.700 |ddv_scf|^2 =  3.016E-15

     End of self-consistent calculation

     Convergence has been achieved 

     Number of q in the star =    8
     List of q in the star:
          1  -0.250000000   0.250000000  -0.250000000
          2   0.250000000  -0.250000000  -0.250000000
          3   0.250000000  -0.250000000   0.250000000
          4   0.250000000   0.250000000   0.250000000
          5  -0.250000000  -0.250000000  -0.250000000
          6  -0.250000000  -0.250000000   0.250000000
          7  -0.250000000   0.250000000   0.250000000
          8   0.250000000   0.250000000  -0.250000000

     Diagonalizing the dynamical matrix

     q = (   -0.250000000   0.250000000  -0.250000000 ) 

 **************************************************************************
     freq (    1) =      12.462722 [THz] =     415.711674 [cm-1]
     freq (    2) =      12.462722 [THz] =     415.711674 [cm-1]
     freq (    3) =      21.244175 [THz] =     708.629402 [cm-1]
     freq (    4) =      38.322823 [THz] =    1278.311776 [cm-1]
     freq (    5) =      38.322823 [THz] =    1278.311776 [cm-1]
     freq (    6) =      40.204274 [THz] =    1341.070216 [cm-1]
 **************************************************************************

     Mode symmetry, C_3v (3m)   point group:

     freq (  1 -  2) =        415.7  [cm-1]   --> E    L_3           
     freq (  3 -  3) =        708.6  [cm-1]   --> A_1  L_1           
     freq (  4 -  5) =       1278.3  [cm-1]   --> E    L_3           
     freq (  6 -  6) =       1341.1  [cm-1]   --> A_1  L_1           

     Calculation of q =    0.5000000  -0.5000000   0.5000000

     G-vector sticks info
     --------------------
     sticks:   dense  smooth     PW     G-vecs:    dense   smooth      PW
     Sum         595     595    211                 9841     9841    2085


     Title: 
     this is a comment line                                                     


     bravais-lattice index     =            2
     lattice parameter (alat)  =       6.6641  a.u.
     unit-cell volume          =      73.9876 (a.u.)^3
     number of atoms/cell      =            2
     number of atomic types    =            1
     number of electrons       =         8.00
     number of Kohn-Sham states=            4
     kinetic-energy cutoff     =     100.0000  Ry
     charge density cutoff     =     400.0000  Ry
     Exchange-correlation      = PZ ( 1  1  0  0 0 0)

     celldm(1)=   6.664070  celldm(2)=   0.000000  celldm(3)=   0.000000
     celldm(4)=   0.000000  celldm(5)=   0.000000  celldm(6)=   0.000000

     crystal axes: (cart. coord. in units of alat)
               a(1) = (  -0.500000   0.000000   0.500000 )  
               a(2) = (   0.000000   0.500000   0.500000 )  
               a(3) = (  -0.500000   0.500000   0.000000 )  

     reciprocal axes: (cart. coord. in units 2 pi/alat)
               b(1) = ( -1.000000 -1.000000  1.000000 )  
               b(2) = (  1.000000  1.000000  1.000000 )  
               b(3) = ( -1.000000  1.000000 -1.000000 )  


     PseudoPot. # 1 for C  read from file:
     ./\C.pz-vbc.UPF
     MD5 check sum: d1c1fc5d9cb49abb76ec42f727807be7
     Pseudo is Norm-conserving, Zval =  4.0
     Generated by new atomic code, or converted to UPF format
     Using radial grid of  269 points,  1 beta functions with: 
                l(1) =   0

     atomic species   valence    mass     pseudopotential
        C              4.00    12.01070     C ( 1.00)

     48 Sym. Ops., with inversion, found



   Cartesian axes

     site n.     atom                  positions (alat units)
         1           C   tau(   1) = (   0.0000000   0.0000000   0.0000000  )
         2           C   tau(   2) = (  -0.2500000   0.2500000   0.2500000  )

     number of k points=    60
                       cart. coord. in units 2pi/alat
        k(    1) = (  -0.1250000   0.1250000   0.1250000), wk =   0.0468750
        k(    2) = (   0.3750000  -0.3750000   0.6250000), wk =   0.0000000
        k(    3) = (  -0.3750000   0.3750000  -0.1250000), wk =   0.0468750
        k(    4) = (   0.1250000  -0.1250000   0.3750000), wk =   0.0000000
        k(    5) = (   0.3750000  -0.3750000   0.6250000), wk =   0.0468750
        k(    6) = (   0.8750000  -0.8750000   1.1250000), wk =   0.0000000
        k(    7) = (   0.1250000  -0.1250000   0.3750000), wk =   0.0468750
        k(    8) = (   0.6250000  -0.6250000   0.8750000), wk =   0.0000000
        k(    9) = (  -0.1250000   0.6250000   0.1250000), wk =   0.0937500
        k(   10) = (   0.3750000   0.1250000   0.6250000), wk =   0.0000000
        k(   11) = (   0.6250000  -0.1250000   0.8750000), wk =   0.0937500
        k(   12) = (   1.1250000  -0.6250000   1.3750000), wk =   0.0000000
        k(   13) = (   0.3750000   0.1250000   0.6250000), wk =   0.0937500
        k(   14) = (   0.8750000  -0.3750000   1.1250000), wk =   0.0000000
        k(   15) = (  -0.1250000  -0.8750000   0.1250000), wk =   0.0937500
        k(   16) = (   0.3750000  -1.3750000   0.6250000), wk =   0.0000000
        k(   17) = (  -0.3750000   0.3750000   0.3750000), wk =   0.0468750
        k(   18) = (   0.1250000  -0.1250000   0.8750000), wk =   0.0000000
        k(   19) = (   0.3750000  -0.3750000   1.1250000), wk =   0.0468750
        k(   20) = (   0.8750000  -0.8750000   1.6250000), wk =   0.0000000
        k(   21) = (   0.1250000  -0.1250000   0.1250000), wk =   0.0156250
        k(   22) = (   0.6250000  -0.6250000   0.6250000), wk =   0.0000000
        k(   23) = (  -0.3750000  -0.3750000  -0.1250000), wk =   0.0937500
        k(   24) = (   0.1250000  -0.8750000   0.3750000), wk =   0.0000000
        k(   25) = (  -0.1250000  -0.3750000   0.3750000), wk =   0.0468750
        k(   26) = (   0.3750000  -0.8750000   0.8750000), wk =   0.0000000
        k(   27) = (   0.3750000   0.3750000   0.6250000), wk =   0.0937500
        k(   28) = (   0.8750000  -0.1250000   1.1250000), wk =   0.0000000
        k(   29) = (   0.6250000   0.3750000  -0.3750000), wk =   0.0468750
        k(   30) = (   1.1250000  -0.1250000   0.1250000), wk =   0.0000000
        k(   31) = (   0.1250000   0.1250000   0.3750000), wk =   0.0937500
        k(   32) = (   0.6250000  -0.3750000   0.8750000), wk =   0.0000000
        k(   33) = (   0.3750000   0.1250000  -0.1250000), wk =   0.0468750
        k(   34) = (   0.8750000  -0.3750000   0.3750000), wk =   0.0000000
        k(   35) = (  -0.1250000  -0.6250000  -0.1250000), wk =   0.0468750
        k(   36) = (   0.3750000  -1.1250000   0.3750000), wk =   0.0000000
        k(   37) = (   0.1250000  -0.6250000   0.1250000), wk =   0.0468750
        k(   38) = (   0.6250000  -1.1250000   0.6250000), wk =   0.0000000
        k(   39) = (   0.6250000   0.1250000   0.8750000), wk =   0.0937500
        k(   40) = (   1.1250000  -0.3750000   1.3750000), wk =   0.0000000
        k(   41) = (  -0.8750000   0.1250000   0.6250000), wk =   0.0937500
        k(   42) = (  -0.3750000  -0.3750000   1.1250000), wk =   0.0000000
        k(   43) = (   0.8750000   0.1250000  -0.6250000), wk =   0.0937500
        k(   44) = (   1.3750000  -0.3750000  -0.1250000), wk =   0.0000000
        k(   45) = (   0.3750000  -0.1250000   0.6250000), wk =   0.0937500
        k(   46) = (   0.8750000  -0.6250000   1.1250000), wk =   0.0000000
        k(   47) = (  -0.6250000  -0.1250000   0.3750000), wk =   0.0937500
        k(   48) = (  -0.1250000  -0.6250000   0.8750000), wk =   0.0000000
        k(   49) = (   0.6250000  -0.1250000  -0.3750000), wk =   0.0937500
        k(   50) = (   1.1250000  -0.6250000   0.1250000), wk =   0.0000000
        k(   51) = (  -0.1250000   0.8750000  -0.1250000), wk =   0.0468750
        k(   52) = (   0.3750000   0.3750000   0.3750000), wk =   0.0000000
        k(   53) = (   0.1250000   0.8750000   0.1250000), wk =   0.0468750
        k(   54) = (   0.6250000   0.3750000   0.6250000), wk =   0.0000000
        k(   55) = (   0.3750000  -0.3750000   0.3750000), wk =   0.0156250
        k(   56) = (   0.8750000  -0.8750000   0.8750000), wk =   0.0000000
        k(   57) = (   0.3750000   0.3750000   1.1250000), wk =   0.0937500
        k(   58) = (   0.8750000  -0.1250000   1.6250000), wk =   0.0000000
        k(   59) = (   1.1250000   0.3750000  -0.3750000), wk =   0.0468750
        k(   60) = (   1.6250000  -0.1250000   0.1250000), wk =   0.0000000

     Dense  grid:     9841 G-vectors     FFT dimensions: (  32,  32,  32)

     Estimated max dynamical RAM per process >       4.29 MB

     The potential is recalculated from file :
     ./\_ph0\diamond.save\charge-density

     Starting wfcs are    8 atomic wfcs

     Band Structure Calculation
     Davidson diagonalization with overlap

     ethr =  1.25E-10,  avg # of iterations =  9.4

     total cpu time spent up to now is        5.8 secs

     End of band structure calculation

          k =-0.1250 0.1250 0.1250 (  1260 PWs)   bands (ev):

    -7.5032  11.2832  13.0802  13.0802

          k = 0.3750-0.3750 0.6250 (  1237 PWs)   bands (ev):

    -2.0440   0.8788   9.5006  10.0880

          k =-0.3750 0.3750-0.1250 (  1257 PWs)   bands (ev):

    -5.2029   5.8382   9.2541  11.8508

          k = 0.1250-0.1250 0.3750 (  1257 PWs)   bands (ev):

    -6.3447   8.5611  10.7521  11.7074

          k = 0.3750-0.3750 0.6250 (  1237 PWs)   bands (ev):

    -2.0440   0.8788   9.5006  10.0880

          k = 0.8750-0.8750 1.1250 (  1260 PWs)   bands (ev):

    -7.5032  11.2832  13.0802  13.0802

          k = 0.1250-0.1250 0.3750 (  1257 PWs)   bands (ev):

    -6.3447   8.5611  10.7521  11.7074

          k = 0.6250-0.6250 0.8750 (  1257 PWs)   bands (ev):

    -5.2029   5.8382   9.2541  11.8508

          k =-0.1250 0.6250 0.1250 (  1259 PWs)   bands (ev):

    -4.0697   6.1663   8.3933   8.6950

          k = 0.3750 0.1250 0.6250 (  1249 PWs)   bands (ev):

    -2.9848   3.7354   7.3114   9.5129

          k = 0.6250-0.1250 0.8750 (  1240 PWs)   bands (ev):

     0.0139   2.4861   5.0421   7.1228

          k = 1.1250-0.6250 1.3750 (  1257 PWs)   bands (ev):

    -5.2029   5.8382   9.2541  11.8508

          k = 0.3750 0.1250 0.6250 (  1249 PWs)   bands (ev):

    -2.9848   3.7354   7.3114   9.5129

          k = 0.8750-0.3750 1.1250 (  1259 PWs)   bands (ev):

    -4.0697   6.1663   8.3933   8.6950

          k =-0.1250-0.8750 0.1250 (  1244 PWs)   bands (ev):

    -0.8043   3.0735   6.0931   7.5843

          k = 0.3750-1.3750 0.6250 (  1237 PWs)   bands (ev):

    -2.0440   0.8788   9.5006  10.0880

          k =-0.3750 0.3750 0.3750 (  1254 PWs)   bands (ev):

    -4.0878   2.8570  11.1316  11.1316

          k = 0.1250-0.1250 0.8750 (  1244 PWs)   bands (ev):

    -0.8043   3.0735   6.0931   7.5843

          k = 0.3750-0.3750 1.1250 (  1245 PWs)   bands (ev):

    -1.0304   1.9126   5.8026   9.3770

          k = 0.8750-0.8750 1.6250 (  1259 PWs)   bands (ev):

    -4.0697   6.1663   8.3933   8.6950

          k = 0.1250-0.1250 0.1250 (  1260 PWs)   bands (ev):

    -7.5032  11.2832  13.0802  13.0802

          k = 0.6250-0.6250 0.6250 (  1254 PWs)   bands (ev):

    -4.0878   2.8570  11.1316  11.1316

          k =-0.3750-0.3750-0.1250 (  1257 PWs)   bands (ev):

    -5.2029   5.8382   9.2541  11.8508

          k = 0.1250-0.8750 0.3750 (  1240 PWs)   bands (ev):

     0.0139   2.4861   5.0421   7.1228

          k =-0.1250-0.3750 0.3750 (  1257 PWs)   bands (ev):

    -5.2029   5.8382   9.2541  11.8508

          k = 0.3750-0.8750 0.8750 (  1259 PWs)   bands (ev):

    -4.0697   6.1663   8.3933   8.6950

          k = 0.3750 0.3750 0.6250 (  1237 PWs)   bands (ev):

    -2.0440   0.8788   9.5006  10.0880

          k = 0.8750-0.1250 1.1250 (  1244 PWs)   bands (ev):

    -0.8043   3.0735   6.0931   7.5843

          k = 0.6250 0.3750-0.3750 (  1237 PWs)   bands (ev):

    -2.0440   0.8788   9.5006  10.0880

          k = 1.1250-0.1250 0.1250 (  1244 PWs)   bands (ev):

    -0.8043   3.0735   6.0931   7.5843

          k = 0.1250 0.1250 0.3750 (  1257 PWs)   bands (ev):

    -6.3447   8.5611  10.7521  11.7074

          k = 0.6250-0.3750 0.8750 (  1249 PWs)   bands (ev):

    -2.9848   3.7354   7.3114   9.5129

          k = 0.3750 0.1250-0.1250 (  1257 PWs)   bands (ev):

    -6.3447   8.5611  10.7521  11.7074

          k = 0.8750-0.3750 0.3750 (  1245 PWs)   bands (ev):

    -1.0304   1.9126   5.8026   9.3770

          k =-0.1250-0.6250-0.1250 (  1259 PWs)   bands (ev):

    -4.0697   6.1663   8.3933   8.6950

          k = 0.3750-1.1250 0.3750 (  1245 PWs)   bands (ev):

    -1.0304   1.9126   5.8026   9.3770

          k = 0.1250-0.6250 0.1250 (  1259 PWs)   bands (ev):

    -4.0697   6.1663   8.3933   8.6950

          k = 0.6250-1.1250 0.6250 (  1257 PWs)   bands (ev):

    -5.2029   5.8382   9.2541  11.8508

          k = 0.6250 0.1250 0.8750 (  1240 PWs)   bands (ev):

     0.0139   2.4861   5.0421   7.1228

          k = 1.1250-0.3750 1.3750 (  1249 PWs)   bands (ev):

    -2.9848   3.7354   7.3114   9.5129

          k =-0.8750 0.1250 0.6250 (  1240 PWs)   bands (ev):

     0.0139   2.4861   5.0421   7.1228

          k =-0.3750-0.3750 1.1250 (  1245 PWs)   bands (ev):

    -1.0304   1.9126   5.8026   9.3770

          k = 0.8750 0.1250-0.6250 (  1240 PWs)   bands (ev):

     0.0139   2.4861   5.0421   7.1228

          k = 1.3750-0.3750-0.1250 (  1249 PWs)   bands (ev):

    -2.9848   3.7354   7.3114   9.5129

          k = 0.3750-0.1250 0.6250 (  1249 PWs)   bands (ev):

    -2.9848   3.7354   7.3114   9.5129

          k = 0.8750-0.6250 1.1250 (  1257 PWs)   bands (ev):

    -6.3447   8.5611  10.7521  11.7074

          k =-0.6250-0.1250 0.3750 (  1249 PWs)   bands (ev):

    -2.9848   3.7354   7.3114   9.5129

          k =-0.1250-0.6250 0.8750 (  1240 PWs)   bands (ev):

     0.0139   2.4861   5.0421   7.1228

          k = 0.6250-0.1250-0.3750 (  1249 PWs)   bands (ev):

    -2.9848   3.7354   7.3114   9.5129

          k = 1.1250-0.6250 0.1250 (  1240 PWs)   bands (ev):

     0.0139   2.4861   5.0421   7.1228

          k =-0.1250 0.8750-0.1250 (  1244 PWs)   bands (ev):

    -0.8043   3.0735   6.0931   7.5843

          k = 0.3750 0.3750 0.3750 (  1254 PWs)   bands (ev):

    -4.0878   2.8570  11.1316  11.1316

          k = 0.1250 0.8750 0.1250 (  1244 PWs)   bands (ev):

    -0.8043   3.0735   6.0931   7.5843

          k = 0.6250 0.3750 0.6250 (  1237 PWs)   bands (ev):

    -2.0440   0.8788   9.5006  10.0880

          k = 0.3750-0.3750 0.3750 (  1254 PWs)   bands (ev):

    -4.0878   2.8570  11.1316  11.1316

          k = 0.8750-0.8750 0.8750 (  1260 PWs)   bands (ev):

    -7.5032  11.2832  13.0802  13.0802

          k = 0.3750 0.3750 1.1250 (  1245 PWs)   bands (ev):

    -1.0304   1.9126   5.8026   9.3770

          k = 0.8750-0.1250 1.6250 (  1240 PWs)   bands (ev):

     0.0139   2.4861   5.0421   7.1228

          k = 1.1250 0.3750-0.3750 (  1245 PWs)   bands (ev):

    -1.0304   1.9126   5.8026   9.3770

          k = 1.6250-0.1250 0.1250 (  1257 PWs)   bands (ev):

    -6.3447   8.5611  10.7521  11.7074

     highest occupied level (ev):    13.0802

     Writing output data file diamond.save\

     this is a comment line                                                     

     bravais-lattice index     =            2
     lattice parameter (alat)  =       6.6641  a.u.
     unit-cell volume          =      73.9876 (a.u.)^3
     number of atoms/cell      =            2
     number of atomic types    =            1
     kinetic-energy cut-off    =     100.0000  Ry
     charge density cut-off    =     400.0000  Ry
     convergence threshold     =      1.0E-14
     beta                      =       0.7000
     number of iterations used =            4
     Exchange-correlation      = PZ ( 1  1  0  0 0 0)


     celldm(1)=    6.66407  celldm(2)=    0.00000  celldm(3)=    0.00000
     celldm(4)=    0.00000  celldm(5)=    0.00000  celldm(6)=    0.00000

     crystal axes: (cart. coord. in units of alat)
               a(1) = ( -0.5000  0.0000  0.5000 )  
               a(2) = (  0.0000  0.5000  0.5000 )  
               a(3) = ( -0.5000  0.5000  0.0000 )  

     reciprocal axes: (cart. coord. in units 2 pi/alat)
               b(1) = ( -1.0000 -1.0000  1.0000 )  
               b(2) = (  1.0000  1.0000  1.0000 )  
               b(3) = ( -1.0000  1.0000 -1.0000 )  


     Atoms inside the unit cell: 

     Cartesian axes

     site n.  atom      mass           positions (alat units)
        1     C   12.0107   tau(    1) = (    0.00000    0.00000    0.00000  )
        2     C   12.0107   tau(    2) = (   -0.25000    0.25000    0.25000  )

     Computing dynamical matrix for 
                    q = (   0.5000000  -0.5000000   0.5000000 )

     13 Sym.Ops. (with q -> -q+G )


     G cutoff =  449.9656  (   9841 G-vectors)     FFT grid: ( 32, 32, 32)
     number of k points=    60

     PseudoPot. # 1 for C  read from file:
     ./\C.pz-vbc.UPF
     MD5 check sum: d1c1fc5d9cb49abb76ec42f727807be7
     Pseudo is Norm-conserving, Zval =  4.0
     Generated by new atomic code, or converted to UPF format
     Using radial grid of  269 points,  1 beta functions with: 
                l(1) =   0


     Atomic displacements:
     There are   4 irreducible representations

     Representation     1      1 modes -  To be done

     Representation     2      1 modes -  To be done

     Representation     3      2 modes -  To be done

     Representation     4      2 modes -  To be done



     Alpha used in Ewald sum =   2.8000
     PHONON       :   7m14.67s CPU   1m18.39s WALL



     Representation #  1 mode #   1

     Self-consistent Calculation

      iter #   1 total cpu time :    79.1 secs   av.it.:   6.1
      thresh= 1.000E-02 alpha_mix =  0.700 |ddv_scf|^2 =  2.485E-05

      iter #   2 total cpu time :    80.0 secs   av.it.:   8.3
      thresh= 4.985E-04 alpha_mix =  0.700 |ddv_scf|^2 =  1.006E-05

      iter #   3 total cpu time :    80.8 secs   av.it.:   8.0
      thresh= 3.171E-04 alpha_mix =  0.700 |ddv_scf|^2 =  1.831E-08

      iter #   4 total cpu time :    81.6 secs   av.it.:   7.9
      thresh= 1.353E-05 alpha_mix =  0.700 |ddv_scf|^2 =  2.459E-11

      iter #   5 total cpu time :    82.3 secs   av.it.:   8.1
      thresh= 4.959E-07 alpha_mix =  0.700 |ddv_scf|^2 =  7.353E-13

      iter #   6 total cpu time :    83.1 secs   av.it.:   8.0
      thresh= 8.575E-08 alpha_mix =  0.700 |ddv_scf|^2 =  6.350E-15

     End of self-consistent calculation

     Convergence has been achieved 


     Representation #  2 mode #   2

     Self-consistent Calculation

      iter #   1 total cpu time :    83.8 secs   av.it.:   6.8
      thresh= 1.000E-02 alpha_mix =  0.700 |ddv_scf|^2 =  2.465E-04

      iter #   2 total cpu time :    84.6 secs   av.it.:   8.7
      thresh= 1.570E-03 alpha_mix =  0.700 |ddv_scf|^2 =  2.402E-04

      iter #   3 total cpu time :    85.4 secs   av.it.:   8.0
      thresh= 1.550E-03 alpha_mix =  0.700 |ddv_scf|^2 =  3.772E-07

      iter #   4 total cpu time :    86.2 secs   av.it.:   8.4
      thresh= 6.141E-05 alpha_mix =  0.700 |ddv_scf|^2 =  2.537E-10

      iter #   5 total cpu time :    87.0 secs   av.it.:   8.3
      thresh= 1.593E-06 alpha_mix =  0.700 |ddv_scf|^2 =  1.351E-11

      iter #   6 total cpu time :    87.8 secs   av.it.:   8.2
      thresh= 3.676E-07 alpha_mix =  0.700 |ddv_scf|^2 =  1.278E-13

      iter #   7 total cpu time :    88.6 secs   av.it.:   8.6
      thresh= 3.576E-08 alpha_mix =  0.700 |ddv_scf|^2 =  1.917E-16

     End of self-consistent calculation

     Convergence has been achieved 


     Representation #  3 modes #   3  4

     Self-consistent Calculation

      iter #   1 total cpu time :    90.0 secs   av.it.:   6.1
      thresh= 1.000E-02 alpha_mix =  0.700 |ddv_scf|^2 =  1.152E-06

      iter #   2 total cpu time :    91.7 secs   av.it.:   9.7
      thresh= 1.073E-04 alpha_mix =  0.700 |ddv_scf|^2 =  2.458E-09

      iter #   3 total cpu time :    93.4 secs   av.it.:   9.7
      thresh= 4.958E-06 alpha_mix =  0.700 |ddv_scf|^2 =  5.856E-11

      iter #   4 total cpu time :    95.0 secs   av.it.:   9.0
      thresh= 7.652E-07 alpha_mix =  0.700 |ddv_scf|^2 =  1.937E-13

      iter #   5 total cpu time :    96.7 secs   av.it.:   9.6
      thresh= 4.402E-08 alpha_mix =  0.700 |ddv_scf|^2 =  6.965E-17

     End of self-consistent calculation

     Convergence has been achieved 


     Representation #  4 modes #   5  6

     Self-consistent Calculation

      iter #   1 total cpu time :    98.1 secs   av.it.:   6.2
      thresh= 1.000E-02 alpha_mix =  0.700 |ddv_scf|^2 =  1.770E-07

      iter #   2 total cpu time :    99.8 secs   av.it.:   9.8
      thresh= 4.207E-05 alpha_mix =  0.700 |ddv_scf|^2 =  7.696E-10

      iter #   3 total cpu time :   101.5 secs   av.it.:   9.4
      thresh= 2.774E-06 alpha_mix =  0.700 |ddv_scf|^2 =  3.789E-11

      iter #   4 total cpu time :   103.1 secs   av.it.:   9.2
      thresh= 6.155E-07 alpha_mix =  0.700 |ddv_scf|^2 =  6.033E-14

      iter #   5 total cpu time :   104.8 secs   av.it.:   9.6
      thresh= 2.456E-08 alpha_mix =  0.700 |ddv_scf|^2 =  1.094E-16

     End of self-consistent calculation

     Convergence has been achieved 

     Number of q in the star =    4
     List of q in the star:
          1   0.500000000  -0.500000000   0.500000000
          2   0.500000000   0.500000000   0.500000000
          3  -0.500000000   0.500000000   0.500000000
          4   0.500000000   0.500000000  -0.500000000

     Diagonalizing the dynamical matrix

     q = (    0.500000000  -0.500000000   0.500000000 ) 

 **************************************************************************
     freq (    1) =      16.653767 [THz] =     555.509867 [cm-1]
     freq (    2) =      16.653767 [THz] =     555.509867 [cm-1]
     freq (    3) =      32.401796 [THz] =    1080.807562 [cm-1]
     freq (    4) =      37.115061 [THz] =    1238.025178 [cm-1]
     freq (    5) =      37.115061 [THz] =    1238.025178 [cm-1]
     freq (    6) =      38.192125 [THz] =    1273.952161 [cm-1]
 **************************************************************************

     Calculation of q =    0.0000000   0.5000000   0.0000000

     G-vector sticks info
     --------------------
     sticks:   dense  smooth     PW     G-vecs:    dense   smooth      PW
     Sum         595     595    199                 9841     9841    1917


     Title: 
     this is a comment line                                                     


     bravais-lattice index     =            2
     lattice parameter (alat)  =       6.6641  a.u.
     unit-cell volume          =      73.9876 (a.u.)^3
     number of atoms/cell      =            2
     number of atomic types    =            1
     number of electrons       =         8.00
     number of Kohn-Sham states=            4
     kinetic-energy cutoff     =     100.0000  Ry
     charge density cutoff     =     400.0000  Ry
     Exchange-correlation      = PZ ( 1  1  0  0 0 0)

     celldm(1)=   6.664070  celldm(2)=   0.000000  celldm(3)=   0.000000
     celldm(4)=   0.000000  celldm(5)=   0.000000  celldm(6)=   0.000000

     crystal axes: (cart. coord. in units of alat)
               a(1) = (  -0.500000   0.000000   0.500000 )  
               a(2) = (   0.000000   0.500000   0.500000 )  
               a(3) = (  -0.500000   0.500000   0.000000 )  

     reciprocal axes: (cart. coord. in units 2 pi/alat)
               b(1) = ( -1.000000 -1.000000  1.000000 )  
               b(2) = (  1.000000  1.000000  1.000000 )  
               b(3) = ( -1.000000  1.000000 -1.000000 )  


     PseudoPot. # 1 for C  read from file:
     ./\C.pz-vbc.UPF
     MD5 check sum: d1c1fc5d9cb49abb76ec42f727807be7
     Pseudo is Norm-conserving, Zval =  4.0
     Generated by new atomic code, or converted to UPF format
     Using radial grid of  269 points,  1 beta functions with: 
                l(1) =   0

     atomic species   valence    mass     pseudopotential
        C              4.00    12.01070     C ( 1.00)

     48 Sym. Ops., with inversion, found



   Cartesian axes

     site n.     atom                  positions (alat units)
         1           C   tau(   1) = (   0.0000000   0.0000000   0.0000000  )
         2           C   tau(   2) = (  -0.2500000   0.2500000   0.2500000  )

     number of k points=    80
                       cart. coord. in units 2pi/alat
        k(    1) = (  -0.1250000   0.1250000   0.1250000), wk =   0.0312500
        k(    2) = (  -0.1250000   0.6250000   0.1250000), wk =   0.0000000
        k(    3) = (  -0.3750000   0.3750000  -0.1250000), wk =   0.0625000
        k(    4) = (  -0.3750000   0.8750000  -0.1250000), wk =   0.0000000
        k(    5) = (   0.3750000  -0.3750000   0.6250000), wk =   0.0625000
        k(    6) = (   0.3750000   0.1250000   0.6250000), wk =   0.0000000
        k(    7) = (   0.1250000  -0.1250000   0.3750000), wk =   0.0625000
        k(    8) = (   0.1250000   0.3750000   0.3750000), wk =   0.0000000
        k(    9) = (  -0.1250000   0.6250000   0.1250000), wk =   0.0312500
        k(   10) = (  -0.1250000   1.1250000   0.1250000), wk =   0.0000000
        k(   11) = (   0.6250000  -0.1250000   0.8750000), wk =   0.0625000
        k(   12) = (   0.6250000   0.3750000   0.8750000), wk =   0.0000000
        k(   13) = (   0.3750000   0.1250000   0.6250000), wk =   0.0625000
        k(   14) = (   0.3750000   0.6250000   0.6250000), wk =   0.0000000
        k(   15) = (  -0.1250000  -0.8750000   0.1250000), wk =   0.0312500
        k(   16) = (  -0.1250000  -0.3750000   0.1250000), wk =   0.0000000
        k(   17) = (  -0.3750000   0.3750000   0.3750000), wk =   0.0312500
        k(   18) = (  -0.3750000   0.8750000   0.3750000), wk =   0.0000000
        k(   19) = (   0.3750000  -0.3750000   1.1250000), wk =   0.0625000
        k(   20) = (   0.3750000   0.1250000   1.1250000), wk =   0.0000000
        k(   21) = (  -0.1250000  -0.1250000   0.1250000), wk =   0.0312500
        k(   22) = (  -0.1250000   0.3750000   0.1250000), wk =   0.0000000
        k(   23) = (   0.1250000  -0.3750000   0.3750000), wk =   0.0625000
        k(   24) = (   0.1250000   0.1250000   0.3750000), wk =   0.0000000
        k(   25) = (   0.3750000  -0.1250000   0.3750000), wk =   0.0312500
        k(   26) = (   0.3750000   0.3750000   0.3750000), wk =   0.0000000
        k(   27) = (   0.3750000   0.1250000   0.3750000), wk =   0.0312500
        k(   28) = (   0.3750000   0.6250000   0.3750000), wk =   0.0000000
        k(   29) = (  -0.6250000   0.3750000  -0.3750000), wk =   0.0625000
        k(   30) = (  -0.6250000   0.8750000  -0.3750000), wk =   0.0000000
        k(   31) = (  -0.3750000   0.6250000  -0.3750000), wk =   0.0312500
        k(   32) = (  -0.3750000   1.1250000  -0.3750000), wk =   0.0000000
        k(   33) = (  -0.3750000  -0.6250000  -0.3750000), wk =   0.0312500
        k(   34) = (  -0.3750000  -0.1250000  -0.3750000), wk =   0.0000000
        k(   35) = (  -0.3750000   0.1250000  -0.1250000), wk =   0.0625000
        k(   36) = (  -0.3750000   0.6250000  -0.1250000), wk =   0.0000000
        k(   37) = (  -0.1250000   0.3750000  -0.1250000), wk =   0.0312500
        k(   38) = (  -0.1250000   0.8750000  -0.1250000), wk =   0.0000000
        k(   39) = (  -0.1250000  -0.3750000  -0.1250000), wk =   0.0312500
        k(   40) = (  -0.1250000   0.1250000  -0.1250000), wk =   0.0000000
        k(   41) = (  -0.1250000  -0.6250000   0.1250000), wk =   0.0312500
        k(   42) = (  -0.1250000  -0.1250000   0.1250000), wk =   0.0000000
        k(   43) = (   0.6250000  -0.1250000  -0.1250000), wk =   0.0625000
        k(   44) = (   0.6250000   0.3750000  -0.1250000), wk =   0.0000000
        k(   45) = (   0.6250000   0.1250000   0.1250000), wk =   0.0625000
        k(   46) = (   0.6250000   0.6250000   0.1250000), wk =   0.0000000
        k(   47) = (  -0.8750000   0.1250000  -0.6250000), wk =   0.0625000
        k(   48) = (  -0.8750000   0.6250000  -0.6250000), wk =   0.0000000
        k(   49) = (  -0.1250000   0.6250000  -0.8750000), wk =   0.0625000
        k(   50) = (  -0.1250000   1.1250000  -0.8750000), wk =   0.0000000
        k(   51) = (  -0.1250000   0.8750000  -0.6250000), wk =   0.0625000
        k(   52) = (  -0.1250000   1.3750000  -0.6250000), wk =   0.0000000
        k(   53) = (  -0.1250000  -0.8750000  -0.6250000), wk =   0.0625000
        k(   54) = (  -0.1250000  -0.3750000  -0.6250000), wk =   0.0000000
        k(   55) = (   0.8750000  -0.6250000   0.1250000), wk =   0.0625000
        k(   56) = (   0.8750000  -0.1250000   0.1250000), wk =   0.0000000
        k(   57) = (  -0.6250000  -0.1250000  -0.3750000), wk =   0.0625000
        k(   58) = (  -0.6250000   0.3750000  -0.3750000), wk =   0.0000000
        k(   59) = (   0.1250000   0.3750000  -0.6250000), wk =   0.0625000
        k(   60) = (   0.1250000   0.8750000  -0.6250000), wk =   0.0000000
        k(   61) = (   0.1250000   0.6250000  -0.3750000), wk =   0.0625000
        k(   62) = (   0.1250000   1.1250000  -0.3750000), wk =   0.0000000
        k(   63) = (   0.1250000  -0.6250000  -0.3750000), wk =   0.0625000
        k(   64) = (   0.1250000  -0.1250000  -0.3750000), wk =   0.0000000
        k(   65) = (   0.6250000  -0.3750000  -0.1250000), wk =   0.0625000
        k(   66) = (   0.6250000   0.1250000  -0.1250000), wk =   0.0000000
        k(   67) = (  -0.1250000   0.8750000   0.1250000), wk =   0.0312500
        k(   68) = (  -0.1250000   1.3750000   0.1250000), wk =   0.0000000
        k(   69) = (  -0.8750000  -0.1250000  -0.1250000), wk =   0.0625000
        k(   70) = (  -0.8750000   0.3750000  -0.1250000), wk =   0.0000000
        k(   71) = (  -0.8750000   0.1250000   0.1250000), wk =   0.0625000
        k(   72) = (  -0.8750000   0.6250000   0.1250000), wk =   0.0000000
        k(   73) = (  -0.3750000  -0.3750000   0.3750000), wk =   0.0312500
        k(   74) = (  -0.3750000   0.1250000   0.3750000), wk =   0.0000000
        k(   75) = (  -1.1250000   0.3750000  -0.3750000), wk =   0.0625000
        k(   76) = (  -1.1250000   0.8750000  -0.3750000), wk =   0.0000000
        k(   77) = (  -0.3750000   1.1250000  -0.3750000), wk =   0.0312500
        k(   78) = (  -0.3750000   1.6250000  -0.3750000), wk =   0.0000000
        k(   79) = (  -0.3750000  -1.1250000  -0.3750000), wk =   0.0312500
        k(   80) = (  -0.3750000  -0.6250000  -0.3750000), wk =   0.0000000

     Dense  grid:     9841 G-vectors     FFT dimensions: (  32,  32,  32)

     Estimated max dynamical RAM per process >       4.29 MB

     The potential is recalculated from file :
     ./\_ph0\diamond.save\charge-density

     Starting wfcs are    8 atomic wfcs

     Band Structure Calculation
     Davidson diagonalization with overlap

     ethr =  1.25E-10,  avg # of iterations =  9.3

     total cpu time spent up to now is        8.2 secs

     End of band structure calculation

          k =-0.1250 0.1250 0.1250 (  1260 PWs)   bands (ev):

    -7.5032  11.2832  13.0802  13.0802

          k =-0.1250 0.6250 0.1250 (  1259 PWs)   bands (ev):

    -4.0697   6.1663   8.3933   8.6950

          k =-0.3750 0.3750-0.1250 (  1257 PWs)   bands (ev):

    -5.2029   5.8382   9.2541  11.8508

          k =-0.3750 0.8750-0.1250 (  1240 PWs)   bands (ev):

     0.0139   2.4861   5.0421   7.1228

          k = 0.3750-0.3750 0.6250 (  1237 PWs)   bands (ev):

    -2.0440   0.8788   9.5006  10.0880

          k = 0.3750 0.1250 0.6250 (  1249 PWs)   bands (ev):

    -2.9848   3.7354   7.3114   9.5129

          k = 0.1250-0.1250 0.3750 (  1257 PWs)   bands (ev):

    -6.3447   8.5611  10.7521  11.7074

          k = 0.1250 0.3750 0.3750 (  1257 PWs)   bands (ev):

    -5.2029   5.8382   9.2541  11.8508

          k =-0.1250 0.6250 0.1250 (  1259 PWs)   bands (ev):

    -4.0697   6.1663   8.3933   8.6950

          k =-0.1250 1.1250 0.1250 (  1244 PWs)   bands (ev):

    -0.8043   3.0735   6.0931   7.5843

          k = 0.6250-0.1250 0.8750 (  1240 PWs)   bands (ev):

     0.0139   2.4861   5.0421   7.1228

          k = 0.6250 0.3750 0.8750 (  1249 PWs)   bands (ev):

    -2.9848   3.7354   7.3114   9.5129

          k = 0.3750 0.1250 0.6250 (  1249 PWs)   bands (ev):

    -2.9848   3.7354   7.3114   9.5129

          k = 0.3750 0.6250 0.6250 (  1237 PWs)   bands (ev):

    -2.0440   0.8788   9.5006  10.0880

          k =-0.1250-0.8750 0.1250 (  1244 PWs)   bands (ev):

    -0.8043   3.0735   6.0931   7.5843

          k =-0.1250-0.3750 0.1250 (  1257 PWs)   bands (ev):

    -6.3447   8.5611  10.7521  11.7074

          k =-0.3750 0.3750 0.3750 (  1254 PWs)   bands (ev):

    -4.0878   2.8570  11.1316  11.1316

          k =-0.3750 0.8750 0.3750 (  1245 PWs)   bands (ev):

    -1.0304   1.9126   5.8026   9.3770

          k = 0.3750-0.3750 1.1250 (  1245 PWs)   bands (ev):

    -1.0304   1.9126   5.8026   9.3770

          k = 0.3750 0.1250 1.1250 (  1240 PWs)   bands (ev):

     0.0139   2.4861   5.0421   7.1228

          k =-0.1250-0.1250 0.1250 (  1260 PWs)   bands (ev):

    -7.5032  11.2832  13.0802  13.0802

          k =-0.1250 0.3750 0.1250 (  1257 PWs)   bands (ev):

    -6.3447   8.5611  10.7521  11.7074

          k = 0.1250-0.3750 0.3750 (  1257 PWs)   bands (ev):

    -5.2029   5.8382   9.2541  11.8508

          k = 0.1250 0.1250 0.3750 (  1257 PWs)   bands (ev):

    -6.3447   8.5611  10.7521  11.7074

          k = 0.3750-0.1250 0.3750 (  1257 PWs)   bands (ev):

    -5.2029   5.8382   9.2541  11.8508

          k = 0.3750 0.3750 0.3750 (  1254 PWs)   bands (ev):

    -4.0878   2.8570  11.1316  11.1316

          k = 0.3750 0.1250 0.3750 (  1257 PWs)   bands (ev):

    -5.2029   5.8382   9.2541  11.8508

          k = 0.3750 0.6250 0.3750 (  1237 PWs)   bands (ev):

    -2.0440   0.8788   9.5006  10.0880

          k =-0.6250 0.3750-0.3750 (  1237 PWs)   bands (ev):

    -2.0440   0.8788   9.5006  10.0880

          k =-0.6250 0.8750-0.3750 (  1249 PWs)   bands (ev):

    -2.9848   3.7354   7.3114   9.5129

          k =-0.3750 0.6250-0.3750 (  1237 PWs)   bands (ev):

    -2.0440   0.8788   9.5006  10.0880

          k =-0.3750 1.1250-0.3750 (  1245 PWs)   bands (ev):

    -1.0304   1.9126   5.8026   9.3770

          k =-0.3750-0.6250-0.3750 (  1237 PWs)   bands (ev):

    -2.0440   0.8788   9.5006  10.0880

          k =-0.3750-0.1250-0.3750 (  1257 PWs)   bands (ev):

    -5.2029   5.8382   9.2541  11.8508

          k =-0.3750 0.1250-0.1250 (  1257 PWs)   bands (ev):

    -6.3447   8.5611  10.7521  11.7074

          k =-0.3750 0.6250-0.1250 (  1249 PWs)   bands (ev):

    -2.9848   3.7354   7.3114   9.5129

          k =-0.1250 0.3750-0.1250 (  1257 PWs)   bands (ev):

    -6.3447   8.5611  10.7521  11.7074

          k =-0.1250 0.8750-0.1250 (  1244 PWs)   bands (ev):

    -0.8043   3.0735   6.0931   7.5843

          k =-0.1250-0.3750-0.1250 (  1257 PWs)   bands (ev):

    -6.3447   8.5611  10.7521  11.7074

          k =-0.1250 0.1250-0.1250 (  1260 PWs)   bands (ev):

    -7.5032  11.2832  13.0802  13.0802

          k =-0.1250-0.6250 0.1250 (  1259 PWs)   bands (ev):

    -4.0697   6.1663   8.3933   8.6950

          k =-0.1250-0.1250 0.1250 (  1260 PWs)   bands (ev):

    -7.5032  11.2832  13.0802  13.0802

          k = 0.6250-0.1250-0.1250 (  1259 PWs)   bands (ev):

    -4.0697   6.1663   8.3933   8.6950

          k = 0.6250 0.3750-0.1250 (  1249 PWs)   bands (ev):

    -2.9848   3.7354   7.3114   9.5129

          k = 0.6250 0.1250 0.1250 (  1259 PWs)   bands (ev):

    -4.0697   6.1663   8.3933   8.6950

          k = 0.6250 0.6250 0.1250 (  1245 PWs)   bands (ev):

    -1.0304   1.9126   5.8026   9.3770

          k =-0.8750 0.1250-0.6250 (  1240 PWs)   bands (ev):

     0.0139   2.4861   5.0421   7.1228

          k =-0.8750 0.6250-0.6250 (  1257 PWs)   bands (ev):

    -5.2029   5.8382   9.2541  11.8508

          k =-0.1250 0.6250-0.8750 (  1240 PWs)   bands (ev):

     0.0139   2.4861   5.0421   7.1228

          k =-0.1250 1.1250-0.8750 (  1244 PWs)   bands (ev):

    -0.8043   3.0735   6.0931   7.5843

          k =-0.1250 0.8750-0.6250 (  1240 PWs)   bands (ev):

     0.0139   2.4861   5.0421   7.1228

          k =-0.1250 1.3750-0.6250 (  1245 PWs)   bands (ev):

    -1.0304   1.9126   5.8026   9.3770

          k =-0.1250-0.8750-0.6250 (  1240 PWs)   bands (ev):

     0.0139   2.4861   5.0421   7.1228

          k =-0.1250-0.3750-0.6250 (  1249 PWs)   bands (ev):

    -2.9848   3.7354   7.3114   9.5129

          k = 0.8750-0.6250 0.1250 (  1240 PWs)   bands (ev):

     0.0139   2.4861   5.0421   7.1228

          k = 0.8750-0.1250 0.1250 (  1244 PWs)   bands (ev):

    -0.8043   3.0735   6.0931   7.5843

          k =-0.6250-0.1250-0.3750 (  1249 PWs)   bands (ev):

    -2.9848   3.7354   7.3114   9.5129

          k =-0.6250 0.3750-0.3750 (  1237 PWs)   bands (ev):

    -2.0440   0.8788   9.5006  10.0880

          k = 0.1250 0.3750-0.6250 (  1249 PWs)   bands (ev):

    -2.9848   3.7354   7.3114   9.5129

          k = 0.1250 0.8750-0.6250 (  1240 PWs)   bands (ev):

     0.0139   2.4861   5.0421   7.1228

          k = 0.1250 0.6250-0.3750 (  1249 PWs)   bands (ev):

    -2.9848   3.7354   7.3114   9.5129

          k = 0.1250 1.1250-0.3750 (  1240 PWs)   bands (ev):

     0.0139   2.4861   5.0421   7.1228

          k = 0.1250-0.6250-0.3750 (  1249 PWs)   bands (ev):

    -2.9848   3.7354   7.3114   9.5129

          k = 0.1250-0.1250-0.3750 (  1257 PWs)   bands (ev):

    -6.3447   8.5611  10.7521  11.7074

          k = 0.6250-0.3750-0.1250 (  1249 PWs)   bands (ev):

    -2.9848   3.7354   7.3114   9.5129

          k = 0.6250 0.1250-0.1250 (  1259 PWs)   bands (ev):

    -4.0697   6.1663   8.3933   8.6950

          k =-0.1250 0.8750 0.1250 (  1244 PWs)   bands (ev):

    -0.8043   3.0735   6.0931   7.5843

          k =-0.1250 1.3750 0.1250 (  1259 PWs)   bands (ev):

    -4.0697   6.1663   8.3933   8.6950

          k =-0.8750-0.1250-0.1250 (  1244 PWs)   bands (ev):

    -0.8043   3.0735   6.0931   7.5843

          k =-0.8750 0.3750-0.1250 (  1240 PWs)   bands (ev):

     0.0139   2.4861   5.0421   7.1228

          k =-0.8750 0.1250 0.1250 (  1244 PWs)   bands (ev):

    -0.8043   3.0735   6.0931   7.5843

          k =-0.8750 0.6250 0.1250 (  1240 PWs)   bands (ev):

     0.0139   2.4861   5.0421   7.1228

          k =-0.3750-0.3750 0.3750 (  1254 PWs)   bands (ev):

    -4.0878   2.8570  11.1316  11.1316

          k =-0.3750 0.1250 0.3750 (  1257 PWs)   bands (ev):

    -5.2029   5.8382   9.2541  11.8508

          k =-1.1250 0.3750-0.3750 (  1245 PWs)   bands (ev):

    -1.0304   1.9126   5.8026   9.3770

          k =-1.1250 0.8750-0.3750 (  1259 PWs)   bands (ev):

    -4.0697   6.1663   8.3933   8.6950

          k =-0.3750 1.1250-0.3750 (  1245 PWs)   bands (ev):

    -1.0304   1.9126   5.8026   9.3770

          k =-0.3750 1.6250-0.3750 (  1254 PWs)   bands (ev):

    -4.0878   2.8570  11.1316  11.1316

          k =-0.3750-1.1250-0.3750 (  1245 PWs)   bands (ev):

    -1.0304   1.9126   5.8026   9.3770

          k =-0.3750-0.6250-0.3750 (  1237 PWs)   bands (ev):

    -2.0440   0.8788   9.5006  10.0880

     highest occupied level (ev):    13.0802

     Writing output data file diamond.save\

     this is a comment line                                                     

     bravais-lattice index     =            2
     lattice parameter (alat)  =       6.6641  a.u.
     unit-cell volume          =      73.9876 (a.u.)^3
     number of atoms/cell      =            2
     number of atomic types    =            1
     kinetic-energy cut-off    =     100.0000  Ry
     charge density cut-off    =     400.0000  Ry
     convergence threshold     =      1.0E-14
     beta                      =       0.7000
     number of iterations used =            4
     Exchange-correlation      = PZ ( 1  1  0  0 0 0)


     celldm(1)=    6.66407  celldm(2)=    0.00000  celldm(3)=    0.00000
     celldm(4)=    0.00000  celldm(5)=    0.00000  celldm(6)=    0.00000

     crystal axes: (cart. coord. in units of alat)
               a(1) = ( -0.5000  0.0000  0.5000 )  
               a(2) = (  0.0000  0.5000  0.5000 )  
               a(3) = ( -0.5000  0.5000  0.0000 )  

     reciprocal axes: (cart. coord. in units 2 pi/alat)
               b(1) = ( -1.0000 -1.0000  1.0000 )  
               b(2) = (  1.0000  1.0000  1.0000 )  
               b(3) = ( -1.0000  1.0000 -1.0000 )  


     Atoms inside the unit cell: 

     Cartesian axes

     site n.  atom      mass           positions (alat units)
        1     C   12.0107   tau(    1) = (    0.00000    0.00000    0.00000  )
        2     C   12.0107   tau(    2) = (   -0.25000    0.25000    0.25000  )

     Computing dynamical matrix for 
                    q = (   0.0000000   0.5000000   0.0000000 )

      8 Sym.Ops. (no q -> -q+G )


     G cutoff =  449.9656  (   9841 G-vectors)     FFT grid: ( 32, 32, 32)
     number of k points=    80

     PseudoPot. # 1 for C  read from file:
     ./\C.pz-vbc.UPF
     MD5 check sum: d1c1fc5d9cb49abb76ec42f727807be7
     Pseudo is Norm-conserving, Zval =  4.0
     Generated by new atomic code, or converted to UPF format
     Using radial grid of  269 points,  1 beta functions with: 
                l(1) =   0

     Mode symmetry, C_4v (4mm)  point group:


     Atomic displacements:
     There are   4 irreducible representations

     Representation     1      1 modes -A_1  G_1 D_1  To be done

     Representation     2      1 modes -B_2  G_4 D_2'  To be done

     Representation     3      2 modes -E    G_5 D_5  To be done

     Representation     4      2 modes -E    G_5 D_5  To be done



     Alpha used in Ewald sum =   2.8000
     PHONON       :  10m 1.62s CPU   1m47.56s WALL



     Representation #  1 mode #   1

     Self-consistent Calculation

      iter #   1 total cpu time :   108.5 secs   av.it.:   7.0
      thresh= 1.000E-02 alpha_mix =  0.700 |ddv_scf|^2 =  1.544E-03

      iter #   2 total cpu time :   109.5 secs   av.it.:   8.2
      thresh= 3.929E-03 alpha_mix =  0.700 |ddv_scf|^2 =  5.271E-03

      iter #   3 total cpu time :   110.4 secs   av.it.:   7.2
      thresh= 7.260E-03 alpha_mix =  0.700 |ddv_scf|^2 =  1.603E-07

      iter #   4 total cpu time :   111.4 secs   av.it.:   7.9
      thresh= 4.004E-05 alpha_mix =  0.700 |ddv_scf|^2 =  7.954E-10

      iter #   5 total cpu time :   112.4 secs   av.it.:   8.0
      thresh= 2.820E-06 alpha_mix =  0.700 |ddv_scf|^2 =  1.443E-11

      iter #   6 total cpu time :   113.4 secs   av.it.:   8.3
      thresh= 3.798E-07 alpha_mix =  0.700 |ddv_scf|^2 =  6.867E-14

      iter #   7 total cpu time :   114.4 secs   av.it.:   8.5
      thresh= 2.620E-08 alpha_mix =  0.700 |ddv_scf|^2 =  3.291E-16

     End of self-consistent calculation

     Convergence has been achieved 


     Representation #  2 mode #   2

     Self-consistent Calculation

      iter #   1 total cpu time :   115.3 secs   av.it.:   6.1
      thresh= 1.000E-02 alpha_mix =  0.700 |ddv_scf|^2 =  6.524E-06

      iter #   2 total cpu time :   116.4 secs   av.it.:   9.0
      thresh= 2.554E-04 alpha_mix =  0.700 |ddv_scf|^2 =  1.120E-06

      iter #   3 total cpu time :   117.5 secs   av.it.:   8.9
      thresh= 1.058E-04 alpha_mix =  0.700 |ddv_scf|^2 =  5.164E-08

      iter #   4 total cpu time :   118.6 secs   av.it.:   8.8
      thresh= 2.272E-05 alpha_mix =  0.700 |ddv_scf|^2 =  8.942E-11

      iter #   5 total cpu time :   119.8 secs   av.it.:   8.5
      thresh= 9.456E-07 alpha_mix =  0.700 |ddv_scf|^2 =  1.518E-12

      iter #   6 total cpu time :   120.8 secs   av.it.:   8.4
      thresh= 1.232E-07 alpha_mix =  0.700 |ddv_scf|^2 =  4.138E-16

     End of self-consistent calculation

     Convergence has been achieved 


     Representation #  3 modes #   3  4

     Self-consistent Calculation

      iter #   1 total cpu time :   122.8 secs   av.it.:   6.2
      thresh= 1.000E-02 alpha_mix =  0.700 |ddv_scf|^2 =  7.631E-07

      iter #   2 total cpu time :   126.0 secs   av.it.:   9.7
      thresh= 8.735E-05 alpha_mix =  0.700 |ddv_scf|^2 =  6.496E-09

      iter #   3 total cpu time :   128.9 secs   av.it.:   9.6
      thresh= 8.060E-06 alpha_mix =  0.700 |ddv_scf|^2 =  7.520E-11

      iter #   4 total cpu time :   132.0 secs   av.it.:   9.4
      thresh= 8.672E-07 alpha_mix =  0.700 |ddv_scf|^2 =  2.375E-12

      iter #   5 total cpu time :   134.4 secs   av.it.:   9.0
      thresh= 1.541E-07 alpha_mix =  0.700 |ddv_scf|^2 =  1.070E-15

     End of self-consistent calculation

     Convergence has been achieved 


     Representation #  4 modes #   5  6

     Self-consistent Calculation

      iter #   1 total cpu time :   136.2 secs   av.it.:   6.3
      thresh= 1.000E-02 alpha_mix =  0.700 |ddv_scf|^2 =  1.111E-06

      iter #   2 total cpu time :   138.8 secs   av.it.:   9.6
      thresh= 1.054E-04 alpha_mix =  0.700 |ddv_scf|^2 =  9.297E-09

      iter #   3 total cpu time :   141.4 secs   av.it.:   9.6
      thresh= 9.642E-06 alpha_mix =  0.700 |ddv_scf|^2 =  7.268E-11

      iter #   4 total cpu time :   143.9 secs   av.it.:   9.3
      thresh= 8.525E-07 alpha_mix =  0.700 |ddv_scf|^2 =  2.046E-12

      iter #   5 total cpu time :   146.1 secs   av.it.:   9.0
      thresh= 1.430E-07 alpha_mix =  0.700 |ddv_scf|^2 =  1.179E-15

     End of self-consistent calculation

     Convergence has been achieved 

     Number of q in the star =    6
     List of q in the star:
          1   0.000000000   0.500000000   0.000000000
          2   0.000000000  -0.500000000   0.000000000
          3   0.500000000   0.000000000   0.000000000
          4   0.000000000   0.000000000   0.500000000
          5   0.000000000   0.000000000  -0.500000000
          6  -0.500000000   0.000000000   0.000000000

     Diagonalizing the dynamical matrix

     q = (    0.000000000   0.500000000   0.000000000 ) 

 **************************************************************************
     freq (    1) =      16.234436 [THz] =     541.522508 [cm-1]
     freq (    2) =      16.234436 [THz] =     541.522508 [cm-1]
     freq (    3) =      22.947928 [THz] =     765.460485 [cm-1]
     freq (    4) =      37.004180 [THz] =    1234.326572 [cm-1]
     freq (    5) =      37.004180 [THz] =    1234.326572 [cm-1]
     freq (    6) =      40.557262 [THz] =    1352.844639 [cm-1]
 **************************************************************************

     Mode symmetry, C_4v (4mm)  point group:

     freq (  1 -  2) =        541.5  [cm-1]   --> E    G_5 D_5       
     freq (  3 -  3) =        765.5  [cm-1]   --> A_1  G_1 D_1       
     freq (  4 -  5) =       1234.3  [cm-1]   --> E    G_5 D_5       
     freq (  6 -  6) =       1352.8  [cm-1]   --> B_2  G_4 D_2'      

     Calculation of q =    0.7500000  -0.2500000   0.7500000

     G-vector sticks info
     --------------------
     sticks:   dense  smooth     PW     G-vecs:    dense   smooth      PW
     Sum         595     595    223                 9841     9841    2229


     Title: 
     this is a comment line                                                     


     bravais-lattice index     =            2
     lattice parameter (alat)  =       6.6641  a.u.
     unit-cell volume          =      73.9876 (a.u.)^3
     number of atoms/cell      =            2
     number of atomic types    =            1
     number of electrons       =         8.00
     number of Kohn-Sham states=            4
     kinetic-energy cutoff     =     100.0000  Ry
     charge density cutoff     =     400.0000  Ry
     Exchange-correlation      = PZ ( 1  1  0  0 0 0)

     celldm(1)=   6.664070  celldm(2)=   0.000000  celldm(3)=   0.000000
     celldm(4)=   0.000000  celldm(5)=   0.000000  celldm(6)=   0.000000

     crystal axes: (cart. coord. in units of alat)
               a(1) = (  -0.500000   0.000000   0.500000 )  
               a(2) = (   0.000000   0.500000   0.500000 )  
               a(3) = (  -0.500000   0.500000   0.000000 )  

     reciprocal axes: (cart. coord. in units 2 pi/alat)
               b(1) = ( -1.000000 -1.000000  1.000000 )  
               b(2) = (  1.000000  1.000000  1.000000 )  
               b(3) = ( -1.000000  1.000000 -1.000000 )  


     PseudoPot. # 1 for C  read from file:
     ./\C.pz-vbc.UPF
     MD5 check sum: d1c1fc5d9cb49abb76ec42f727807be7
     Pseudo is Norm-conserving, Zval =  4.0
     Generated by new atomic code, or converted to UPF format
     Using radial grid of  269 points,  1 beta functions with: 
                l(1) =   0

     atomic species   valence    mass     pseudopotential
        C              4.00    12.01070     C ( 1.00)

     48 Sym. Ops., with inversion, found



   Cartesian axes

     site n.     atom                  positions (alat units)
         1           C   tau(   1) = (   0.0000000   0.0000000   0.0000000  )
         2           C   tau(   2) = (  -0.2500000   0.2500000   0.2500000  )

     number of k points=   288

     Number of k-points >= 100: set verbosity='high' to print them.

     Dense  grid:     9841 G-vectors     FFT dimensions: (  32,  32,  32)

     Estimated max dynamical RAM per process >       4.29 MB

     The potential is recalculated from file :
     ./\_ph0\diamond.save\charge-density

     Starting wfcs are    8 atomic wfcs

     Band Structure Calculation
     Davidson diagonalization with overlap

     ethr =  1.25E-10,  avg # of iterations =  9.3

     total cpu time spent up to now is       17.2 secs

     End of band structure calculation

     Number of k-points >= 100: set verbosity='high' to print the bands.

     highest occupied level (ev):    13.0802

     Writing output data file diamond.save\

     this is a comment line                                                     

     bravais-lattice index     =            2
     lattice parameter (alat)  =       6.6641  a.u.
     unit-cell volume          =      73.9876 (a.u.)^3
     number of atoms/cell      =            2
     number of atomic types    =            1
     kinetic-energy cut-off    =     100.0000  Ry
     charge density cut-off    =     400.0000  Ry
     convergence threshold     =      1.0E-14
     beta                      =       0.7000
     number of iterations used =            4
     Exchange-correlation      = PZ ( 1  1  0  0 0 0)


     celldm(1)=    6.66407  celldm(2)=    0.00000  celldm(3)=    0.00000
     celldm(4)=    0.00000  celldm(5)=    0.00000  celldm(6)=    0.00000

     crystal axes: (cart. coord. in units of alat)
               a(1) = ( -0.5000  0.0000  0.5000 )  
               a(2) = (  0.0000  0.5000  0.5000 )  
               a(3) = ( -0.5000  0.5000  0.0000 )  

     reciprocal axes: (cart. coord. in units 2 pi/alat)
               b(1) = ( -1.0000 -1.0000  1.0000 )  
               b(2) = (  1.0000  1.0000  1.0000 )  
               b(3) = ( -1.0000  1.0000 -1.0000 )  


     Atoms inside the unit cell: 

     Cartesian axes

     site n.  atom      mass           positions (alat units)
        1     C   12.0107   tau(    1) = (    0.00000    0.00000    0.00000  )
        2     C   12.0107   tau(    2) = (   -0.25000    0.25000    0.25000  )

     Computing dynamical matrix for 
                    q = (   0.7500000  -0.2500000   0.7500000 )

      2 Sym.Ops. (no q -> -q+G )


     G cutoff =  449.9656  (   9841 G-vectors)     FFT grid: ( 32, 32, 32)
     number of k points=   288

     PseudoPot. # 1 for C  read from file:
     ./\C.pz-vbc.UPF
     MD5 check sum: d1c1fc5d9cb49abb76ec42f727807be7
     Pseudo is Norm-conserving, Zval =  4.0
     Generated by new atomic code, or converted to UPF format
     Using radial grid of  269 points,  1 beta functions with: 
                l(1) =   0

     Mode symmetry, C_s (m)     point group:


     Atomic displacements:
     There are   6 irreducible representations

     Representation     1      1 modes -A'  To be done

     Representation     2      1 modes -A'  To be done

     Representation     3      1 modes -A'  To be done

     Representation     4      1 modes -A'  To be done

     Representation     5      1 modes -A''  To be done

     Representation     6      1 modes -A''  To be done



     Alpha used in Ewald sum =   2.8000
     PHONON       :  14m24.89s CPU   2m35.40s WALL



     Representation #  1 mode #   1

     Self-consistent Calculation

      iter #   1 total cpu time :   158.8 secs   av.it.:   6.8
      thresh= 1.000E-02 alpha_mix =  0.700 |ddv_scf|^2 =  8.996E-05

      iter #   2 total cpu time :   162.5 secs   av.it.:   9.0
      thresh= 9.485E-04 alpha_mix =  0.700 |ddv_scf|^2 =  7.856E-05

      iter #   3 total cpu time :   166.0 secs   av.it.:   8.2
      thresh= 8.863E-04 alpha_mix =  0.700 |ddv_scf|^2 =  3.667E-07

      iter #   4 total cpu time :   169.7 secs   av.it.:   8.6
      thresh= 6.055E-05 alpha_mix =  0.700 |ddv_scf|^2 =  6.792E-09

      iter #   5 total cpu time :   173.4 secs   av.it.:   8.8
      thresh= 8.241E-06 alpha_mix =  0.700 |ddv_scf|^2 =  1.997E-10

      iter #   6 total cpu time :   177.1 secs   av.it.:   9.0
      thresh= 1.413E-06 alpha_mix =  0.700 |ddv_scf|^2 =  4.589E-12

      iter #   7 total cpu time :   180.7 secs   av.it.:   8.6
      thresh= 2.142E-07 alpha_mix =  0.700 |ddv_scf|^2 =  7.166E-14

      iter #   8 total cpu time :   184.4 secs   av.it.:   8.7
      thresh= 2.677E-08 alpha_mix =  0.700 |ddv_scf|^2 =  9.390E-15

     End of self-consistent calculation

     Convergence has been achieved 


     Representation #  2 mode #   2

     Self-consistent Calculation

      iter #   1 total cpu time :   187.6 secs   av.it.:   6.8
      thresh= 1.000E-02 alpha_mix =  0.700 |ddv_scf|^2 =  6.305E-05

      iter #   2 total cpu time :   191.3 secs   av.it.:   9.0
      thresh= 7.940E-04 alpha_mix =  0.700 |ddv_scf|^2 =  5.663E-05

      iter #   3 total cpu time :   194.9 secs   av.it.:   8.3
      thresh= 7.525E-04 alpha_mix =  0.700 |ddv_scf|^2 =  1.998E-07

      iter #   4 total cpu time :   198.5 secs   av.it.:   8.8
      thresh= 4.470E-05 alpha_mix =  0.700 |ddv_scf|^2 =  1.367E-08

      iter #   5 total cpu time :   202.1 secs   av.it.:   8.6
      thresh= 1.169E-05 alpha_mix =  0.700 |ddv_scf|^2 =  5.696E-11

      iter #   6 total cpu time :   205.4 secs   av.it.:   8.8
      thresh= 7.547E-07 alpha_mix =  0.700 |ddv_scf|^2 =  2.798E-12

      iter #   7 total cpu time :   208.8 secs   av.it.:   8.9
      thresh= 1.673E-07 alpha_mix =  0.700 |ddv_scf|^2 =  1.442E-13

      iter #   8 total cpu time :   212.4 secs   av.it.:   9.0
      thresh= 3.797E-08 alpha_mix =  0.700 |ddv_scf|^2 =  6.822E-15

     End of self-consistent calculation

     Convergence has been achieved 


     Representation #  3 mode #   3

     Self-consistent Calculation

      iter #   1 total cpu time :   215.4 secs   av.it.:   6.6
      thresh= 1.000E-02 alpha_mix =  0.700 |ddv_scf|^2 =  4.681E-05

      iter #   2 total cpu time :   219.2 secs   av.it.:   9.0
      thresh= 6.842E-04 alpha_mix =  0.700 |ddv_scf|^2 =  3.293E-05

      iter #   3 total cpu time :   222.8 secs   av.it.:   8.2
      thresh= 5.738E-04 alpha_mix =  0.700 |ddv_scf|^2 =  4.584E-07

      iter #   4 total cpu time :   226.1 secs   av.it.:   8.4
      thresh= 6.771E-05 alpha_mix =  0.700 |ddv_scf|^2 =  3.294E-09

      iter #   5 total cpu time :   230.1 secs   av.it.:   8.9
      thresh= 5.739E-06 alpha_mix =  0.700 |ddv_scf|^2 =  3.454E-10

      iter #   6 total cpu time :   233.6 secs   av.it.:   8.9
      thresh= 1.859E-06 alpha_mix =  0.700 |ddv_scf|^2 =  6.762E-12

      iter #   7 total cpu time :   236.9 secs   av.it.:   8.7
      thresh= 2.600E-07 alpha_mix =  0.700 |ddv_scf|^2 =  7.637E-14

      iter #   8 total cpu time :   240.3 secs   av.it.:   8.9
      thresh= 2.763E-08 alpha_mix =  0.700 |ddv_scf|^2 =  2.464E-15

     End of self-consistent calculation

     Convergence has been achieved 


     Representation #  4 mode #   4

     Self-consistent Calculation

      iter #   1 total cpu time :   243.2 secs   av.it.:   6.5
      thresh= 1.000E-02 alpha_mix =  0.700 |ddv_scf|^2 =  1.991E-05

      iter #   2 total cpu time :   246.6 secs   av.it.:   9.1
      thresh= 4.462E-04 alpha_mix =  0.700 |ddv_scf|^2 =  1.102E-05

      iter #   3 total cpu time :   250.0 secs   av.it.:   8.4
      thresh= 3.319E-04 alpha_mix =  0.700 |ddv_scf|^2 =  3.532E-07

      iter #   4 total cpu time :   253.2 secs   av.it.:   8.4
      thresh= 5.943E-05 alpha_mix =  0.700 |ddv_scf|^2 =  4.794E-09

      iter #   5 total cpu time :   256.7 secs   av.it.:   8.9
      thresh= 6.924E-06 alpha_mix =  0.700 |ddv_scf|^2 =  4.087E-10

      iter #   6 total cpu time :   260.1 secs   av.it.:   8.8
      thresh= 2.022E-06 alpha_mix =  0.700 |ddv_scf|^2 =  8.287E-12

      iter #   7 total cpu time :   263.5 secs   av.it.:   8.8
      thresh= 2.879E-07 alpha_mix =  0.700 |ddv_scf|^2 =  2.053E-13

      iter #   8 total cpu time :   266.8 secs   av.it.:   8.8
      thresh= 4.531E-08 alpha_mix =  0.700 |ddv_scf|^2 =  1.352E-15

     End of self-consistent calculation

     Convergence has been achieved 


     Representation #  5 mode #   5

     Self-consistent Calculation

      iter #   1 total cpu time :   269.6 secs   av.it.:   6.2
      thresh= 1.000E-02 alpha_mix =  0.700 |ddv_scf|^2 =  4.376E-06

      iter #   2 total cpu time :   273.0 secs   av.it.:   8.8
      thresh= 2.092E-04 alpha_mix =  0.700 |ddv_scf|^2 =  5.563E-08

      iter #   3 total cpu time :   276.4 secs   av.it.:   8.8
      thresh= 2.359E-05 alpha_mix =  0.700 |ddv_scf|^2 =  3.280E-10

      iter #   4 total cpu time :   279.7 secs   av.it.:   8.6
      thresh= 1.811E-06 alpha_mix =  0.700 |ddv_scf|^2 =  8.669E-12

      iter #   5 total cpu time :   282.9 secs   av.it.:   8.2
      thresh= 2.944E-07 alpha_mix =  0.700 |ddv_scf|^2 =  1.040E-14

      iter #   6 total cpu time :   286.4 secs   av.it.:   9.0
      thresh= 1.020E-08 alpha_mix =  0.700 |ddv_scf|^2 =  3.654E-17

     End of self-consistent calculation

     Convergence has been achieved 


     Representation #  6 mode #   6

     Self-consistent Calculation

      iter #   1 total cpu time :   289.1 secs   av.it.:   6.2
      thresh= 1.000E-02 alpha_mix =  0.700 |ddv_scf|^2 =  4.376E-06

      iter #   2 total cpu time :   292.5 secs   av.it.:   8.8
      thresh= 2.092E-04 alpha_mix =  0.700 |ddv_scf|^2 =  5.564E-08

      iter #   3 total cpu time :   295.9 secs   av.it.:   8.8
      thresh= 2.359E-05 alpha_mix =  0.700 |ddv_scf|^2 =  3.280E-10

      iter #   4 total cpu time :   299.3 secs   av.it.:   8.6
      thresh= 1.811E-06 alpha_mix =  0.700 |ddv_scf|^2 =  8.670E-12

      iter #   5 total cpu time :   302.5 secs   av.it.:   8.2
      thresh= 2.944E-07 alpha_mix =  0.700 |ddv_scf|^2 =  1.040E-14

      iter #   6 total cpu time :   305.9 secs   av.it.:   9.0
      thresh= 1.020E-08 alpha_mix =  0.700 |ddv_scf|^2 =  3.653E-17

     End of self-consistent calculation

     Convergence has been achieved 

     Number of q in the star =   24
     List of q in the star:
          1   0.750000000  -0.250000000   0.750000000
          2   0.750000000  -0.250000000  -0.750000000
          3  -0.750000000  -0.250000000  -0.750000000
          4  -0.750000000  -0.250000000   0.750000000
          5  -0.750000000   0.250000000  -0.750000000
          6  -0.250000000   0.750000000  -0.750000000
          7  -0.750000000   0.750000000  -0.250000000
          8   0.750000000   0.250000000   0.750000000
          9  -0.750000000   0.250000000   0.750000000
         10   0.750000000   0.250000000  -0.750000000
         11  -0.750000000   0.750000000   0.250000000
         12  -0.250000000   0.750000000   0.750000000
         13   0.250000000   0.750000000  -0.750000000
         14  -0.250000000  -0.750000000  -0.750000000
         15   0.750000000   0.750000000  -0.250000000
         16   0.750000000  -0.750000000   0.250000000
         17  -0.750000000  -0.750000000  -0.250000000
         18   0.250000000  -0.750000000   0.750000000
         19  -0.750000000  -0.750000000   0.250000000
         20   0.250000000   0.750000000   0.750000000
         21  -0.250000000  -0.750000000   0.750000000
         22   0.750000000   0.750000000   0.250000000
         23   0.250000000  -0.750000000  -0.750000000
         24   0.750000000  -0.750000000  -0.250000000

     Diagonalizing the dynamical matrix

[...]
        k(   43) = (  -0.1250000   0.8750000   0.6250000), wk =   0.0625000
        k(   44) = (  -0.6250000  -0.1250000   0.6250000), wk =   0.0000000
        k(   45) = (   0.1250000   0.8750000  -0.6250000), wk =   0.0625000
        k(   46) = (  -0.3750000  -0.1250000  -0.6250000), wk =   0.0000000
        k(   47) = (  -0.6250000  -0.1250000  -0.3750000), wk =   0.0625000
        k(   48) = (  -1.1250000  -1.1250000  -0.3750000), wk =   0.0000000
        k(   49) = (   0.6250000   0.1250000   0.3750000), wk =   0.0625000
        k(   50) = (   0.1250000  -0.8750000   0.3750000), wk =   0.0000000
        k(   51) = (  -0.3750000  -0.1250000   0.6250000), wk =   0.0625000
        k(   52) = (  -0.8750000  -1.1250000   0.6250000), wk =   0.0000000
        k(   53) = (   0.1250000   0.6250000   0.3750000), wk =   0.0625000
        k(   54) = (  -0.3750000  -0.3750000   0.3750000), wk =   0.0000000
        k(   55) = (  -0.1250000   0.6250000  -0.3750000), wk =   0.0625000
        k(   56) = (  -0.6250000  -0.3750000  -0.3750000), wk =   0.0000000
        k(   57) = (   0.1250000  -0.8750000  -0.1250000), wk =   0.0625000
        k(   58) = (  -0.3750000  -1.8750000  -0.1250000), wk =   0.0000000
        k(   59) = (  -0.8750000   0.1250000  -0.1250000), wk =   0.0625000
        k(   60) = (  -1.3750000  -0.8750000  -0.1250000), wk =   0.0000000
        k(   61) = (  -1.1250000   0.3750000  -0.3750000), wk =   0.0625000
        k(   62) = (  -1.6250000  -0.6250000  -0.3750000), wk =   0.0000000
        k(   63) = (  -0.3750000   0.3750000   1.1250000), wk =   0.0625000
        k(   64) = (  -0.8750000  -0.6250000   1.1250000), wk =   0.0000000

     Dense  grid:     9841 G-vectors     FFT dimensions: (  32,  32,  32)

     Estimated max dynamical RAM per process >       4.29 MB

     The potential is recalculated from file :
     ./\_ph0\diamond.save\charge-density

     Starting wfcs are    8 atomic wfcs

     Band Structure Calculation
     Davidson diagonalization with overlap

     ethr =  1.25E-10,  avg # of iterations =  9.3

     total cpu time spent up to now is       24.2 secs

     End of band structure calculation

          k =-0.1250 0.1250 0.1250 (  1260 PWs)   bands (ev):

    -7.5032  11.2832  13.0802  13.0802

          k =-0.6250-0.8750 0.1250 (  1240 PWs)   bands (ev):

     0.0139   2.4861   5.0421   7.1228

          k =-0.3750 0.3750-0.1250 (  1257 PWs)   bands (ev):

    -5.2029   5.8382   9.2541  11.8508

          k =-0.8750-0.6250-0.1250 (  1240 PWs)   bands (ev):

     0.0139   2.4861   5.0421   7.1228

          k = 0.3750-0.3750 0.6250 (  1237 PWs)   bands (ev):

    -2.0440   0.8788   9.5006  10.0880

          k =-0.1250-1.3750 0.6250 (  1245 PWs)   bands (ev):

    -1.0304   1.9126   5.8026   9.3770

          k = 0.1250-0.1250 0.3750 (  1257 PWs)   bands (ev):

    -6.3447   8.5611  10.7521  11.7074

          k =-0.3750-1.1250 0.3750 (  1245 PWs)   bands (ev):

    -1.0304   1.9126   5.8026   9.3770

          k =-0.1250 0.6250 0.1250 (  1259 PWs)   bands (ev):

    -4.0697   6.1663   8.3933   8.6950

          k =-0.6250-0.3750 0.1250 (  1249 PWs)   bands (ev):

    -2.9848   3.7354   7.3114   9.5129

          k = 0.6250-0.1250 0.8750 (  1240 PWs)   bands (ev):

     0.0139   2.4861   5.0421   7.1228

          k = 0.1250-1.1250 0.8750 (  1244 PWs)   bands (ev):

    -0.8043   3.0735   6.0931   7.5843

          k = 0.3750 0.1250 0.6250 (  1249 PWs)   bands (ev):

    -2.9848   3.7354   7.3114   9.5129

          k =-0.1250-0.8750 0.6250 (  1240 PWs)   bands (ev):

     0.0139   2.4861   5.0421   7.1228

          k =-0.1250-0.8750 0.1250 (  1244 PWs)   bands (ev):

    -0.8043   3.0735   6.0931   7.5843

          k =-0.6250-1.8750 0.1250 (  1259 PWs)   bands (ev):

    -4.0697   6.1663   8.3933   8.6950

          k =-0.3750 0.3750 0.3750 (  1254 PWs)   bands (ev):

    -4.0878   2.8570  11.1316  11.1316

          k =-0.8750-0.6250 0.3750 (  1249 PWs)   bands (ev):

    -2.9848   3.7354   7.3114   9.5129

          k = 0.3750-0.3750 1.1250 (  1245 PWs)   bands (ev):

    -1.0304   1.9126   5.8026   9.3770

          k =-0.1250-1.3750 1.1250 (  1240 PWs)   bands (ev):

     0.0139   2.4861   5.0421   7.1228

          k = 0.1250-0.3750 0.3750 (  1257 PWs)   bands (ev):

    -5.2029   5.8382   9.2541  11.8508

          k =-0.3750-1.3750 0.3750 (  1237 PWs)   bands (ev):

    -2.0440   0.8788   9.5006  10.0880

          k = 0.3750-0.3750-0.1250 (  1257 PWs)   bands (ev):

    -5.2029   5.8382   9.2541  11.8508

          k =-0.1250-1.3750-0.1250 (  1259 PWs)   bands (ev):

    -4.0697   6.1663   8.3933   8.6950

          k =-0.6250 0.3750-0.3750 (  1237 PWs)   bands (ev):

    -2.0440   0.8788   9.5006  10.0880

          k =-1.1250-0.6250-0.3750 (  1249 PWs)   bands (ev):

    -2.9848   3.7354   7.3114   9.5129

          k =-0.3750 0.3750 0.6250 (  1237 PWs)   bands (ev):

    -2.0440   0.8788   9.5006  10.0880

          k =-0.8750-0.6250 0.6250 (  1257 PWs)   bands (ev):

    -5.2029   5.8382   9.2541  11.8508

          k =-0.3750 0.1250-0.1250 (  1257 PWs)   bands (ev):

    -6.3447   8.5611  10.7521  11.7074

          k =-0.8750-0.8750-0.1250 (  1244 PWs)   bands (ev):

    -0.8043   3.0735   6.0931   7.5843

          k =-0.1250 0.1250 0.3750 (  1257 PWs)   bands (ev):

    -6.3447   8.5611  10.7521  11.7074

          k =-0.6250-0.8750 0.3750 (  1249 PWs)   bands (ev):

    -2.9848   3.7354   7.3114   9.5129

          k = 0.1250 0.6250-0.1250 (  1259 PWs)   bands (ev):

    -4.0697   6.1663   8.3933   8.6950

          k =-0.3750-0.3750-0.1250 (  1257 PWs)   bands (ev):

    -5.2029   5.8382   9.2541  11.8508

          k = 0.6250 0.1250-0.1250 (  1259 PWs)   bands (ev):

    -4.0697   6.1663   8.3933   8.6950

          k = 0.1250-0.8750-0.1250 (  1244 PWs)   bands (ev):

    -0.8043   3.0735   6.0931   7.5843

          k =-0.8750 0.1250-0.6250 (  1240 PWs)   bands (ev):

     0.0139   2.4861   5.0421   7.1228

          k =-1.3750-0.8750-0.6250 (  1257 PWs)   bands (ev):

    -5.2029   5.8382   9.2541  11.8508

          k = 0.8750-0.1250 0.6250 (  1240 PWs)   bands (ev):

     0.0139   2.4861   5.0421   7.1228

          k = 0.3750-1.1250 0.6250 (  1249 PWs)   bands (ev):

    -2.9848   3.7354   7.3114   9.5129

          k =-0.6250 0.1250 0.8750 (  1240 PWs)   bands (ev):

     0.0139   2.4861   5.0421   7.1228

          k =-1.1250-0.8750 0.8750 (  1260 PWs)   bands (ev):

    -7.5032  11.2832  13.0802  13.0802

          k =-0.1250 0.8750 0.6250 (  1240 PWs)   bands (ev):

     0.0139   2.4861   5.0421   7.1228

          k =-0.6250-0.1250 0.6250 (  1245 PWs)   bands (ev):

    -1.0304   1.9126   5.8026   9.3770

          k = 0.1250 0.8750-0.6250 (  1240 PWs)   bands (ev):

     0.0139   2.4861   5.0421   7.1228

          k =-0.3750-0.1250-0.6250 (  1249 PWs)   bands (ev):

    -2.9848   3.7354   7.3114   9.5129

          k =-0.6250-0.1250-0.3750 (  1249 PWs)   bands (ev):

    -2.9848   3.7354   7.3114   9.5129

          k =-1.1250-1.1250-0.3750 (  1259 PWs)   bands (ev):

    -4.0697   6.1663   8.3933   8.6950

          k = 0.6250 0.1250 0.3750 (  1249 PWs)   bands (ev):

    -2.9848   3.7354   7.3114   9.5129

          k = 0.1250-0.8750 0.3750 (  1240 PWs)   bands (ev):

     0.0139   2.4861   5.0421   7.1228

          k =-0.3750-0.1250 0.6250 (  1249 PWs)   bands (ev):

    -2.9848   3.7354   7.3114   9.5129

          k =-0.8750-1.1250 0.6250 (  1257 PWs)   bands (ev):

    -6.3447   8.5611  10.7521  11.7074

          k = 0.1250 0.6250 0.3750 (  1249 PWs)   bands (ev):

    -2.9848   3.7354   7.3114   9.5129

          k =-0.3750-0.3750 0.3750 (  1254 PWs)   bands (ev):

    -4.0878   2.8570  11.1316  11.1316

          k =-0.1250 0.6250-0.3750 (  1249 PWs)   bands (ev):

    -2.9848   3.7354   7.3114   9.5129

          k =-0.6250-0.3750-0.3750 (  1237 PWs)   bands (ev):

    -2.0440   0.8788   9.5006  10.0880

          k = 0.1250-0.8750-0.1250 (  1244 PWs)   bands (ev):

    -0.8043   3.0735   6.0931   7.5843

          k =-0.3750-1.8750-0.1250 (  1257 PWs)   bands (ev):

    -6.3447   8.5611  10.7521  11.7074

          k =-0.8750 0.1250-0.1250 (  1244 PWs)   bands (ev):

    -0.8043   3.0735   6.0931   7.5843

          k =-1.3750-0.8750-0.1250 (  1240 PWs)   bands (ev):

     0.0139   2.4861   5.0421   7.1228

          k =-1.1250 0.3750-0.3750 (  1245 PWs)   bands (ev):

    -1.0304   1.9126   5.8026   9.3770

          k =-1.6250-0.6250-0.3750 (  1237 PWs)   bands (ev):

    -2.0440   0.8788   9.5006  10.0880

          k =-0.3750 0.3750 1.1250 (  1245 PWs)   bands (ev):

    -1.0304   1.9126   5.8026   9.3770

          k =-0.8750-0.6250 1.1250 (  1257 PWs)   bands (ev):

    -6.3447   8.5611  10.7521  11.7074

     highest occupied level (ev):    13.0802

     Writing output data file diamond.save\

     this is a comment line                                                     

     bravais-lattice index     =            2
     lattice parameter (alat)  =       6.6641  a.u.
     unit-cell volume          =      73.9876 (a.u.)^3
     number of atoms/cell      =            2
     number of atomic types    =            1
     kinetic-energy cut-off    =     100.0000  Ry
     charge density cut-off    =     400.0000  Ry
     convergence threshold     =      1.0E-14
     beta                      =       0.7000
     number of iterations used =            4
     Exchange-correlation      = PZ ( 1  1  0  0 0 0)


     celldm(1)=    6.66407  celldm(2)=    0.00000  celldm(3)=    0.00000
     celldm(4)=    0.00000  celldm(5)=    0.00000  celldm(6)=    0.00000

     crystal axes: (cart. coord. in units of alat)
               a(1) = ( -0.5000  0.0000  0.5000 )  
               a(2) = (  0.0000  0.5000  0.5000 )  
               a(3) = ( -0.5000  0.5000  0.0000 )  

     reciprocal axes: (cart. coord. in units 2 pi/alat)
               b(1) = ( -1.0000 -1.0000  1.0000 )  
               b(2) = (  1.0000  1.0000  1.0000 )  
               b(3) = ( -1.0000  1.0000 -1.0000 )  


     Atoms inside the unit cell: 

     Cartesian axes

     site n.  atom      mass           positions (alat units)
        1     C   12.0107   tau(    1) = (    0.00000    0.00000    0.00000  )
        2     C   12.0107   tau(    2) = (   -0.25000    0.25000    0.25000  )

     Computing dynamical matrix for 
                    q = (  -0.5000000  -1.0000000   0.0000000 )

      8 Sym.Ops. (no q -> -q+G )


     G cutoff =  449.9656  (   9841 G-vectors)     FFT grid: ( 32, 32, 32)
     number of k points=    64

     PseudoPot. # 1 for C  read from file:
     ./\C.pz-vbc.UPF
     MD5 check sum: d1c1fc5d9cb49abb76ec42f727807be7
     Pseudo is Norm-conserving, Zval =  4.0
     Generated by new atomic code, or converted to UPF format
     Using radial grid of  269 points,  1 beta functions with: 
                l(1) =   0


     Atomic displacements:
     There are   3 irreducible representations

     Representation     1      2 modes -  To be done

     Representation     2      2 modes -  To be done

     Representation     3      2 modes -  To be done



     Alpha used in Ewald sum =   2.8000
     PHONON       :  37m14.44s CPU   6m30.53s WALL



     Representation #  1 modes #   1  2

     Self-consistent Calculation

      iter #   1 total cpu time :   391.8 secs   av.it.:   6.2
      thresh= 1.000E-02 alpha_mix =  0.700 |ddv_scf|^2 =  1.731E-06

      iter #   2 total cpu time :   393.5 secs   av.it.:   9.7
      thresh= 1.316E-04 alpha_mix =  0.700 |ddv_scf|^2 =  1.721E-07

      iter #   3 total cpu time :   395.1 secs   av.it.:   9.5
      thresh= 4.149E-05 alpha_mix =  0.700 |ddv_scf|^2 =  1.419E-10

      iter #   4 total cpu time :   396.7 secs   av.it.:   9.7
      thresh= 1.191E-06 alpha_mix =  0.700 |ddv_scf|^2 =  3.770E-12

      iter #   5 total cpu time :   398.3 secs   av.it.:   9.1
      thresh= 1.942E-07 alpha_mix =  0.700 |ddv_scf|^2 =  1.740E-14

      iter #   6 total cpu time :   399.9 secs   av.it.:   9.7
      thresh= 1.319E-08 alpha_mix =  0.700 |ddv_scf|^2 =  2.067E-17

     End of self-consistent calculation

     Convergence has been achieved 


     Representation #  2 modes #   3  4

     Self-consistent Calculation

      iter #   1 total cpu time :   401.2 secs   av.it.:   6.6
      thresh= 1.000E-02 alpha_mix =  0.700 |ddv_scf|^2 =  8.631E-06

      iter #   2 total cpu time :   402.9 secs   av.it.:   9.8
      thresh= 2.938E-04 alpha_mix =  0.700 |ddv_scf|^2 =  4.567E-06

      iter #   3 total cpu time :   404.5 secs   av.it.:   9.5
      thresh= 2.137E-04 alpha_mix =  0.700 |ddv_scf|^2 =  1.406E-08

      iter #   4 total cpu time :   406.2 secs   av.it.:   9.3
      thresh= 1.186E-05 alpha_mix =  0.700 |ddv_scf|^2 =  1.983E-11

      iter #   5 total cpu time :   407.8 secs   av.it.:   9.2
      thresh= 4.454E-07 alpha_mix =  0.700 |ddv_scf|^2 =  7.948E-14

      iter #   6 total cpu time :   409.4 secs   av.it.:   9.3
      thresh= 2.819E-08 alpha_mix =  0.700 |ddv_scf|^2 =  1.451E-15

     End of self-consistent calculation

     Convergence has been achieved 


     Representation #  3 modes #   5  6

     Self-consistent Calculation

      iter #   1 total cpu time :   410.7 secs   av.it.:   6.8
      thresh= 1.000E-02 alpha_mix =  0.700 |ddv_scf|^2 =  6.156E-06

      iter #   2 total cpu time :   412.4 secs   av.it.:   9.8
      thresh= 2.481E-04 alpha_mix =  0.700 |ddv_scf|^2 =  6.638E-07

      iter #   3 total cpu time :   414.3 secs   av.it.:   9.6
      thresh= 8.148E-05 alpha_mix =  0.700 |ddv_scf|^2 =  2.069E-10

      iter #   4 total cpu time :   415.9 secs   av.it.:   9.6
      thresh= 1.438E-06 alpha_mix =  0.700 |ddv_scf|^2 =  5.631E-12

      iter #   5 total cpu time :   417.5 secs   av.it.:   9.0
      thresh= 2.373E-07 alpha_mix =  0.700 |ddv_scf|^2 =  1.143E-14

      iter #   6 total cpu time :   419.2 secs   av.it.:   9.7
      thresh= 1.069E-08 alpha_mix =  0.700 |ddv_scf|^2 =  8.706E-17

     End of self-consistent calculation

     Convergence has been achieved 

     Number of q in the star =    6
     List of q in the star:
          1  -0.500000000  -1.000000000   0.000000000
          2   0.000000000   1.000000000   0.500000000
          3   0.000000000  -1.000000000  -0.500000000
          4   0.500000000   1.000000000   0.000000000
          5  -1.000000000  -0.500000000   0.000000000
          6   0.000000000  -0.500000000  -1.000000000

     Diagonalizing the dynamical matrix

     q = (   -0.500000000  -1.000000000   0.000000000 ) 

 **************************************************************************
     freq (    1) =      27.938319 [THz] =     931.922015 [cm-1]
     freq (    2) =      27.938319 [THz] =     931.922015 [cm-1]
     freq (    3) =      30.588889 [THz] =    1020.335504 [cm-1]
     freq (    4) =      30.588889 [THz] =    1020.335504 [cm-1]
     freq (    5) =      35.744865 [THz] =    1192.320340 [cm-1]
     freq (    6) =      35.744865 [THz] =    1192.320340 [cm-1]
 **************************************************************************

     init_run     :      3.22s CPU      0.61s WALL (       7 calls)
     electrons    :    134.05s CPU     23.43s WALL (       7 calls)

     Called by init_run:
     wfcinit      :      0.00s CPU      0.00s WALL (       7 calls)
     potinit      :      0.09s CPU      0.02s WALL (       7 calls)
     hinit0       :      2.95s CPU      0.51s WALL (       7 calls)

     Called by electrons:
     c_bands      :    133.97s CPU     23.43s WALL (       7 calls)
     v_of_rho     :      0.00s CPU      0.01s WALL (       8 calls)

     Called by c_bands:
     init_us_2    :      7.06s CPU      1.33s WALL (   17090 calls)
     cegterg      :    110.20s CPU     19.44s WALL (     796 calls)

     Called by sum_band:

     Called by *egterg:
     h_psi        :   1728.98s CPU    297.78s WALL (  163533 calls)
     g_psi        :      2.91s CPU      0.47s WALL (    7436 calls)
     cdiaghg      :      3.64s CPU      0.67s WALL (    8232 calls)

     Called by h_psi:
     h_psi:pot    :   1672.62s CPU    287.94s WALL (  163533 calls)
     h_psi:calbec :     13.58s CPU      2.56s WALL (  163533 calls)
     vloc_psi     :   1628.98s CPU    280.28s WALL (  163533 calls)
     add_vuspsi   :     26.94s CPU      4.70s WALL (  163533 calls)

     General routines
     calbec       :     23.34s CPU      4.17s WALL (  331940 calls)
     fft          :      0.84s CPU      0.10s WALL (     933 calls)
     ffts         :      1.34s CPU      0.33s WALL (    2700 calls)
     fftw         :    947.58s CPU    161.36s WALL ( 1463084 calls)
     davcio       :     16.59s CPU      3.57s WALL (   78530 calls)

     Parallel routines

     PHONON       :  40m 1.80s CPU   6m59.20s WALL

     INITIALIZATION: 
     phq_setup    :      0.61s CPU      0.12s WALL (       8 calls)
     phq_init     :      9.45s CPU      1.65s WALL (       8 calls)

     phq_init     :      9.45s CPU      1.65s WALL (       8 calls)
     init_vloc    :      0.12s CPU      0.02s WALL (       8 calls)
     init_us_1    :      0.62s CPU      0.10s WALL (       8 calls)

     DYNAMICAL MATRIX:
     dynmat0      :      2.30s CPU      0.41s WALL (       8 calls)
     phqscf       :   2229.66s CPU    388.86s WALL (       8 calls)
     dynmatrix    :      0.23s CPU      0.03s WALL (       8 calls)

     phqscf       :   2229.66s CPU    388.86s WALL (       8 calls)
     solve_linter :   2225.12s CPU    387.95s WALL (      32 calls)
     drhodv       :      3.72s CPU      0.72s WALL (      32 calls)

     dynmat0      :      2.30s CPU      0.41s WALL (       8 calls)
     dynmat_us    :      1.66s CPU      0.33s WALL (       8 calls)
     d2ionq       :      0.59s CPU      0.07s WALL (       8 calls)

     dynmat_us    :      1.66s CPU      0.33s WALL (       8 calls)

     phqscf       :   2229.66s CPU    388.86s WALL (       8 calls)
     solve_linter :   2225.12s CPU    387.95s WALL (      32 calls)

     solve_linter :   2225.12s CPU    387.95s WALL (      32 calls)
     dvqpsi_us    :     34.75s CPU      5.96s WALL (    2508 calls)
     ortho        :     10.17s CPU      1.72s WALL (   15982 calls)
     cgsolve      :   1859.08s CPU    322.02s WALL (   15982 calls)
     incdrhoscf   :    173.19s CPU     30.82s WALL (   15952 calls)
     vpsifft      :    107.91s CPU     19.63s WALL (   13354 calls)
     dv_of_drho   :      1.52s CPU      0.21s WALL (     300 calls)
     mix_pot      :      3.84s CPU      0.80s WALL (     206 calls)
     psymdvscf    :     26.52s CPU      4.62s WALL (     201 calls)

     dvqpsi_us    :     34.75s CPU      5.96s WALL (    2508 calls)
     dvqpsi_us_on :      1.14s CPU      0.21s WALL (    2508 calls)

     cgsolve      :   1859.08s CPU    322.02s WALL (   15982 calls)
     ch_psi       :   1807.70s CPU    312.67s WALL (  154505 calls)

     ch_psi       :   1807.70s CPU    312.67s WALL (  154505 calls)
     h_psi        :   1728.98s CPU    297.78s WALL (  163533 calls)
     last         :    124.59s CPU     22.20s WALL (  154505 calls)

     h_psi        :   1728.98s CPU    297.78s WALL (  163533 calls)
     add_vuspsi   :     26.94s CPU      4.70s WALL (  163533 calls)

     incdrhoscf   :    173.19s CPU     30.82s WALL (   15952 calls)


      General routines
     calbec       :     23.34s CPU      4.17s WALL (  331940 calls)
     fft          :      0.84s CPU      0.10s WALL (     933 calls)
     ffts         :      1.34s CPU      0.33s WALL (    2700 calls)
     fftw         :    947.58s CPU    161.36s WALL ( 1463084 calls)
     davcio       :     16.59s CPU      3.57s WALL (   78530 calls)
     write_rec    :      3.09s CPU      0.83s WALL (     238 calls)


     PHONON       :  40m 1.80s CPU   6m59.20s WALL


   This run was terminated on:  14:25: 1  31Jul2021            

=------------------------------------------------------------------------------=
   JOB DONE.
=------------------------------------------------------------------------------=
