
     Program PWSCF v.6.4.1 starts on 30Jul2021 at 14:11:31 

     This program is part of the open-source Quantum ESPRESSO suite
     for quantum simulation of materials; please cite
         "P. Giannozzi et al., J. Phys.:Condens. Matter 21 395502 (2009);
         "P. Giannozzi et al., J. Phys.:Condens. Matter 29 465901 (2017);
          URL http://www.quantum-espresso.org", 
     in publications or presentations arising from this work. More details at
     http://www.quantum-espresso.org/quote

     Parallel version (MPI & OpenMP), running on      12 processor cores
     Number of MPI processes:                 1
     Threads/MPI process:                    12

     MPI processes distributed on     1 nodes
     Waiting for input...
     Reading input from standard input
     Message from routine read_cards :
     DEPRECATED: no units specified in CELL_PARAMETERS card

     Current dimensions of program PWSCF are:
     Max number of different atomic species (ntypx) = 10
     Max number of k-points (npk) =  40000
     Max angular momentum in pseudopotentials (lmaxx) =  3

     Subspace diagonalization in iterative solution of the eigenvalue problem:
     a serial algorithm will be used

     Message from routine setup:
     DEPRECATED: symmetry with ibrav=0, use correct ibrav instead

     G-vector sticks info
     --------------------
     sticks:   dense  smooth     PW     G-vecs:    dense   smooth      PW
     Sum         595     595    199                 9841     9841    1807



     bravais-lattice index     =            0
     lattice parameter (alat)  =       6.6641  a.u.
     unit-cell volume          =      73.9875 (a.u.)^3
     number of atoms/cell      =            2
     number of atomic types    =            1
     number of electrons       =         8.00
     number of Kohn-Sham states=            4
     kinetic-energy cutoff     =     100.0000  Ry
     charge density cutoff     =     400.0000  Ry
     convergence threshold     =      1.0E-06
     mixing beta               =       0.7000
     number of iterations used =            8  plain     mixing
     Exchange-correlation      = SLA PZ NOGX NOGC ( 1  1  0  0 0 0)
     nstep                     =           50


     celldm(1)=   6.664070  celldm(2)=   0.000000  celldm(3)=   0.000000
     celldm(4)=   0.000000  celldm(5)=   0.000000  celldm(6)=   0.000000

     crystal axes: (cart. coord. in units of alat)
               a(1) = (  -0.500000  -0.000500   0.500000 )  
               a(2) = (   0.000500   0.500000   0.500000 )  
               a(3) = (  -0.499500   0.499500   0.000000 )  

     reciprocal axes: (cart. coord. in units 2 pi/alat)
               b(1) = ( -0.999001 -0.999001  1.000000 )  
               b(2) = (  0.999001  0.999001  1.000000 )  
               b(3) = ( -1.001001  1.001001 -1.000000 )  


     PseudoPot. # 1 for C  read from file:
     ./\C.pz-vbc.UPF
     MD5 check sum: f697e42eaa1e52b77fcf7925dd36a1dd
     Pseudo is Norm-conserving, Zval =  4.0
     Generated by new atomic code, or converted to UPF format
     Using radial grid of  269 points,  1 beta functions with: 
                l(1) =   0

     atomic species   valence    mass     pseudopotential
        C              4.00     1.00000     C ( 1.00)

      8 Sym. Ops., with inversion, found ( 4 have fractional translation)



   Cartesian axes

     site n.     atom                  positions (alat units)
         1           C   tau(   1) = (   0.0000000   0.0000000   0.0000000  )
         2           C   tau(   2) = (  -0.2497500   0.2497500   0.2500000  )

     number of k points=    63
                       cart. coord. in units 2pi/alat
        k(    1) = (  -0.0834168   0.0834168   0.0833333), wk =   0.0185185
        k(    2) = (  -0.2502503   0.2502503  -0.0833333), wk =   0.0185185
        k(    3) = (  -0.4170838   0.4170838  -0.2500000), wk =   0.0185185
        k(    4) = (   0.4170838  -0.4170838   0.5833333), wk =   0.0185185
        k(    5) = (   0.2502503  -0.2502503   0.4166667), wk =   0.0185185
        k(    6) = (   0.0834168  -0.0834168   0.2500000), wk =   0.0185185
        k(    7) = (   0.0830834   0.2499169   0.2500000), wk =   0.0370370
        k(    8) = (  -0.0837501   0.4167504   0.0833333), wk =   0.0370370
        k(    9) = (  -0.2505836   0.5835839  -0.0833333), wk =   0.0370370
        k(   10) = (   0.5835839  -0.2505836   0.7500000), wk =   0.0370370
        k(   11) = (   0.4167504  -0.0837501   0.5833333), wk =   0.0370370
        k(   12) = (   0.2499169   0.0830834   0.4166667), wk =   0.0370370
        k(   13) = (   0.2495836   0.4164171   0.4166667), wk =   0.0370370
        k(   14) = (   0.0827501   0.5832506   0.2500000), wk =   0.0370370
        k(   15) = (  -0.0840834   0.7500841   0.0833333), wk =   0.0370370
        k(   16) = (   0.7500841  -0.0840834   0.9166667), wk =   0.0370370
        k(   17) = (   0.5832506   0.0827501   0.7500000), wk =   0.0370370
        k(   18) = (   0.4164171   0.2495836   0.5833333), wk =   0.0370370
        k(   19) = (  -0.5829172  -0.4160837  -0.4166667), wk =   0.0370370
        k(   20) = (  -0.7497507  -0.2492502  -0.5833333), wk =   0.0370370
        k(   21) = (  -0.9165842  -0.0824167  -0.7500000), wk =   0.0370370
        k(   22) = (  -0.0824167  -0.9165842   0.0833333), wk =   0.0370370
        k(   23) = (  -0.2492502  -0.7497507  -0.0833333), wk =   0.0370370
        k(   24) = (  -0.4160837  -0.5829172  -0.2500000), wk =   0.0370370
        k(   25) = (  -0.4164171  -0.2495836  -0.2500000), wk =   0.0370370
        k(   26) = (  -0.5832506  -0.0827501  -0.4166667), wk =   0.0370370
        k(   27) = (  -0.7500841   0.0840834  -0.5833333), wk =   0.0370370
        k(   28) = (   0.0840834  -0.7500841   0.2500000), wk =   0.0370370
        k(   29) = (  -0.0827501  -0.5832506   0.0833333), wk =   0.0370370
        k(   30) = (  -0.2495836  -0.4164171  -0.0833333), wk =   0.0370370
        k(   31) = (  -0.2499169  -0.0830834  -0.0833333), wk =   0.0370370
        k(   32) = (  -0.4167504   0.0837501  -0.2500000), wk =   0.0370370
        k(   33) = (  -0.5835839   0.2505836  -0.4166667), wk =   0.0370370
        k(   34) = (  -0.0834168   0.0834168   0.4166667), wk =   0.0185185
        k(   35) = (  -0.2502503   0.2502503   0.2500000), wk =   0.0185185
        k(   36) = (  -0.4170838   0.4170838   0.0833333), wk =   0.0185185
        k(   37) = (   0.4170838  -0.4170838   0.9166667), wk =   0.0185185
        k(   38) = (   0.2502503  -0.2502503   0.7500000), wk =   0.0185185
        k(   39) = (   0.0834168  -0.0834168   0.5833333), wk =   0.0185185
        k(   40) = (   0.0830834   0.2499169   0.5833333), wk =   0.0370370
        k(   41) = (  -0.0837501   0.4167504   0.4166667), wk =   0.0370370
        k(   42) = (  -0.2505836   0.5835839   0.2500000), wk =   0.0370370
        k(   43) = (   0.5835839  -0.2505836   1.0833333), wk =   0.0370370
        k(   44) = (   0.4167504  -0.0837501   0.9166667), wk =   0.0370370
        k(   45) = (   0.2499169   0.0830834   0.7500000), wk =   0.0370370
        k(   46) = (  -0.7494174  -0.5825839  -0.2500000), wk =   0.0370370
        k(   47) = (  -0.9162509  -0.4157504  -0.4166667), wk =   0.0370370
        k(   48) = (  -1.0830844  -0.2489169  -0.5833333), wk =   0.0370370
        k(   49) = (  -0.2489169  -1.0830844   0.2500000), wk =   0.0370370
        k(   50) = (  -0.4157504  -0.9162509   0.0833333), wk =   0.0370370
        k(   51) = (  -0.5825839  -0.7494174  -0.0833333), wk =   0.0370370
        k(   52) = (  -0.5829172  -0.4160837  -0.0833333), wk =   0.0370370
        k(   53) = (  -0.7497507  -0.2492502  -0.2500000), wk =   0.0370370
        k(   54) = (  -0.9165842  -0.0824167  -0.4166667), wk =   0.0370370
        k(   55) = (  -0.0834168   0.0834168   0.7500000), wk =   0.0185185
        k(   56) = (  -0.2502503   0.2502503   0.5833333), wk =   0.0185185
        k(   57) = (  -0.4170838   0.4170838   0.4166667), wk =   0.0185185
        k(   58) = (   0.4170838  -0.4170838   1.2500000), wk =   0.0185185
        k(   59) = (   0.2502503  -0.2502503   1.0833333), wk =   0.0185185
        k(   60) = (   0.0834168  -0.0834168   0.9166667), wk =   0.0185185
        k(   61) = (  -0.9159176  -0.7490841  -0.0833333), wk =   0.0370370
        k(   62) = (  -1.0827511  -0.5822506  -0.2500000), wk =   0.0370370
        k(   63) = (  -1.2495846  -0.4154171  -0.4166667), wk =   0.0370370

     Dense  grid:     9841 G-vectors     FFT dimensions: (  32,  32,  32)

     Estimated max dynamical RAM per process >      11.90 MB

     Initial potential from superposition of free atoms

     starting charge    7.99994, renormalised to    8.00000
     Starting wfcs are    8 randomized atomic wfcs

     total cpu time spent up to now is        0.4 secs

     Self-consistent Calculation

     iteration #  1     ecut=   100.00 Ry     beta= 0.70
     Davidson diagonalization with overlap
     ethr =  1.00E-02,  avg # of iterations =  2.0

     total cpu time spent up to now is        0.8 secs

     total energy              =     -22.78743350 Ry
     Harris-Foulkes estimate   =     -22.86241382 Ry
     estimated scf accuracy    <       0.14092966 Ry

     iteration #  2     ecut=   100.00 Ry     beta= 0.70
     Davidson diagonalization with overlap
     ethr =  1.76E-03,  avg # of iterations =  2.0

     total cpu time spent up to now is        1.1 secs

     total energy              =     -22.80121902 Ry
     Harris-Foulkes estimate   =     -22.80168161 Ry
     estimated scf accuracy    <       0.00178311 Ry

     iteration #  3     ecut=   100.00 Ry     beta= 0.70
     Davidson diagonalization with overlap
     ethr =  2.23E-05,  avg # of iterations =  2.1

     total cpu time spent up to now is        1.4 secs

     total energy              =     -22.80162765 Ry
     Harris-Foulkes estimate   =     -22.80163965 Ry
     estimated scf accuracy    <       0.00006765 Ry

     iteration #  4     ecut=   100.00 Ry     beta= 0.70
     Davidson diagonalization with overlap
     ethr =  8.46E-07,  avg # of iterations =  2.6

     total cpu time spent up to now is        1.8 secs

     total energy              =     -22.80164602 Ry
     Harris-Foulkes estimate   =     -22.80164864 Ry
     estimated scf accuracy    <       0.00000272 Ry

     iteration #  5     ecut=   100.00 Ry     beta= 0.70
     Davidson diagonalization with overlap
     ethr =  3.40E-08,  avg # of iterations =  2.5

     total cpu time spent up to now is        2.2 secs

     End of self-consistent calculation

          k =-0.0834 0.0834 0.0833 (  1249 PWs)   bands (ev):

    -7.7457  12.5082  13.4233  13.4245

          k =-0.2503 0.2503-0.0833 (  1259 PWs)   bands (ev):

    -6.7111   9.0047  10.9789  12.8440

          k =-0.4171 0.4171-0.2500 (  1255 PWs)   bands (ev):

    -4.1858   3.4366  10.0275  11.3320

          k = 0.4171-0.4171 0.5833 (  1234 PWs)   bands (ev):

    -1.9910   0.4080  10.1955  10.4742

          k = 0.2503-0.2503 0.4167 (  1252 PWs)   bands (ev):

    -5.1846   5.2413  10.6815  11.3328

          k = 0.0834-0.0834 0.2500 (  1269 PWs)   bands (ev):

    -7.2282  10.8050  11.9542  12.8073

          k = 0.0831 0.2499 0.2500 (  1258 PWs)   bands (ev):

    -6.7143   8.9871  10.9866  12.8491

          k =-0.0838 0.4168 0.0833 (  1265 PWs)   bands (ev):

    -6.1989   9.0062  10.2817  11.0696

          k =-0.2506 0.5836-0.0833 (  1257 PWs)   bands (ev):

    -4.1769   5.7552   8.0024   9.6537

          k = 0.5836-0.2506 0.7500 (  1244 PWs)   bands (ev):

    -1.0719   1.3197   7.2212   8.8735

          k = 0.4168-0.0838 0.5833 (  1249 PWs)   bands (ev):

    -3.2100   4.2046   6.7577  10.0678

          k = 0.2499 0.0831 0.4167 (  1262 PWs)   bands (ev):

    -5.6926   7.2382   9.4513  11.7027

          k = 0.2496 0.4164 0.4167 (  1255 PWs)   bands (ev):

    -4.1973   3.4217  10.0435  11.3455

          k = 0.0828 0.5833 0.2500 (  1257 PWs)   bands (ev):

    -4.1847   5.7538   8.0030   9.6558

          k =-0.0841 0.7501 0.0833 (  1249 PWs)   bands (ev):

    -2.6908   5.0753   7.2841   7.8760

          k = 0.7501-0.0841 0.9167 (  1245 PWs)   bands (ev):

     0.0903   2.5035   5.3831   7.0699

          k = 0.5833 0.0828 0.7500 (  1244 PWs)   bands (ev):

    -0.2400   2.1597   4.8594   8.3227

          k = 0.4164 0.2496 0.5833 (  1245 PWs)   bands (ev):

    -2.7621   2.0446   8.9404  10.2197

          k =-0.5829-0.4161-0.4167 (  1237 PWs)   bands (ev):

    -2.0149   0.4045  10.2134  10.4924

          k =-0.7498-0.2493-0.5833 (  1243 PWs)   bands (ev):

    -1.0969   1.3265   7.2303   8.8852

          k =-0.9166-0.0824-0.7500 (  1243 PWs)   bands (ev):

     0.0763   2.5221   5.3754   7.0716

          k =-0.0824-0.9166 0.0833 (  1250 PWs)   bands (ev):

    -0.3105   2.3711   6.6123   7.3689

          k =-0.2493-0.7498-0.0833 (  1249 PWs)   bands (ev):

    -2.2356   4.4151   6.5354   7.7975

          k =-0.4161-0.5829-0.2500 (  1245 PWs)   bands (ev):

    -2.7673   2.0526   8.9333  10.2187

          k =-0.4164-0.2496-0.2500 (  1252 PWs)   bands (ev):

    -5.1913   5.2201  10.7001  11.3474

          k =-0.5833-0.0828-0.4167 (  1247 PWs)   bands (ev):

    -3.2138   4.1866   6.7773  10.0735

          k =-0.7501 0.0841-0.5833 (  1246 PWs)   bands (ev):

    -0.2279   2.1576   4.8519   8.3190

          k = 0.0841-0.7501 0.2500 (  1248 PWs)   bands (ev):

    -2.2251   4.4017   6.5460   7.7937

          k =-0.0828-0.5833 0.0833 (  1260 PWs)   bands (ev):

    -4.6798   7.2878   8.8707   8.8781

          k =-0.2496-0.4164-0.0833 (  1257 PWs)   bands (ev):

    -5.6958   7.2499   9.4344  11.6994

          k =-0.2499-0.0831-0.0833 (  1268 PWs)   bands (ev):

    -7.2293  10.7864  11.9672  12.8112

          k =-0.4168 0.0838-0.2500 (  1259 PWs)   bands (ev):

    -5.6903   7.2615   9.4289  11.6964

          k =-0.5836 0.2506-0.4167 (  1247 PWs)   bands (ev):

    -2.7500   2.0585   8.9223  10.2037

          k =-0.0834 0.0834 0.4167 (  1266 PWs)   bands (ev):

    -6.2000   9.0188  10.2688  11.0639

          k =-0.2503 0.2503 0.2500 (  1257 PWs)   bands (ev):

    -6.1990   7.0344  11.9347  11.9354

          k =-0.4171 0.4171 0.0833 (  1259 PWs)   bands (ev):

    -4.6788   5.5766   8.0506  11.5008

          k = 0.4171-0.4171 0.9167 (  1246 PWs)   bands (ev):

    -1.8093   2.9130   5.6345   9.7373

          k = 0.2503-0.2503 0.7500 (  1240 PWs)   bands (ev):

    -1.7881   2.8001   6.8351   8.6564

          k = 0.0834-0.0834 0.5833 (  1262 PWs)   bands (ev):

    -4.6776   7.2977   8.8517   8.8866

          k = 0.0831 0.2499 0.5833 (  1258 PWs)   bands (ev):

    -4.1836   5.7412   8.0171   9.6563

          k =-0.0838 0.4168 0.4167 (  1258 PWs)   bands (ev):

    -4.6843   5.5861   8.0363  11.5025

          k =-0.2506 0.5836 0.2500 (  1257 PWs)   bands (ev):

    -3.6897   3.7966   9.3973   9.5249

          k = 0.5836-0.2506 1.0833 (  1241 PWs)   bands (ev):

    -1.3293   3.1762   5.7348   7.9117

          k = 0.4168-0.0838 0.9167 (  1239 PWs)   bands (ev):

     0.6780   2.4096   4.7218   6.3385

          k = 0.2499 0.0831 0.7500 (  1248 PWs)   bands (ev):

    -2.2290   4.3937   6.5406   7.8130

          k =-0.7494-0.5826-0.2500 (  1245 PWs)   bands (ev):

    -1.0960   1.3182   7.2398   8.8830

          k =-0.9163-0.4158-0.4167 (  1247 PWs)   bands (ev):

    -1.8265   2.9098   5.6427   9.7507

          k =-1.0831-0.2489-0.5833 (  1241 PWs)   bands (ev):

    -1.3393   3.1812   5.7408   7.9076

          k =-0.2489-1.0831 0.2500 (  1245 PWs)   bands (ev):

     0.2780   2.1386   4.4733   8.2221

          k =-0.4158-0.9163 0.0833 (  1240 PWs)   bands (ev):

     0.6541   2.4229   4.7270   6.3437

          k =-0.5826-0.7494-0.0833 (  1242 PWs)   bands (ev):

    -0.2519   2.1665   4.8537   8.3349

          k =-0.5829-0.4161-0.0833 (  1249 PWs)   bands (ev):

    -3.2215   4.1935   6.7707  10.0755

          k =-0.7498-0.2493-0.2500 (  1241 PWs)   bands (ev):

    -1.8003   2.7898   6.8414   8.6764

          k =-0.9166-0.0824-0.4167 (  1237 PWs)   bands (ev):

     0.6645   2.4174   4.7158   6.3512

          k =-0.0834 0.0834 0.7500 (  1248 PWs)   bands (ev):

    -2.6931   5.0851   7.2917   7.8573

          k =-0.2503 0.2503 0.5833 (  1256 PWs)   bands (ev):

    -3.6930   3.8077   9.3911   9.5159

          k =-0.4171 0.4171 0.4167 (  1251 PWs)   bands (ev):

    -3.2314   1.6181  10.9648  10.9689

          k = 0.4171-0.4171 1.2500 (  1240 PWs)   bands (ev):

    -1.5326   0.8855   8.1380  10.0109

          k = 0.2503-0.2503 1.0833 (  1246 PWs)   bands (ev):

     0.2780   2.1531   4.4715   8.2060

          k = 0.0834-0.0834 0.9167 (  1249 PWs)   bands (ev):

    -0.3066   2.3673   6.6329   7.3479

          k =-0.9159-0.7491-0.0833 (  1242 PWs)   bands (ev):

     0.0777   2.5138   5.3705   7.0851

          k =-1.0828-0.5823-0.2500 (  1240 PWs)   bands (ev):

    -1.3402   3.1934   5.7245   7.9127

          k =-1.2496-0.4154-0.4167 (  1238 PWs)   bands (ev):

    -1.5379   0.8886   8.1346  10.0155

     highest occupied level (ev):    13.4245

!    total energy              =     -22.80164689 Ry
     Harris-Foulkes estimate   =     -22.80164689 Ry
     estimated scf accuracy    <       0.00000001 Ry

     The total energy is the sum of the following terms:

     one-electron contribution =       8.33376919 Ry
     hartree contribution      =       1.84401481 Ry
     xc contribution           =      -7.11273598 Ry
     ewald contribution        =     -25.86669491 Ry

     convergence has been achieved in   5 iterations

     Forces acting on atoms (cartesian axes, Ry/au):

     atom    1 type  1   force =     0.00000000    0.00000000   -0.00062174
     atom    2 type  1   force =     0.00000000    0.00000000    0.00062174

     Total force =     0.000879     Total SCF correction =     0.000006

     BFGS Geometry Optimization

     bfgs converged in   1 scf cycles and   0 bfgs steps
     (criteria: energy <  1.0E-04 Ry, force <  1.0E-03 Ry/Bohr)

     End of BFGS Geometry Optimization

     Final energy             =     -22.8016468897 Ry
Begin final coordinates

ATOMIC_POSITIONS (crystal)
C        0.000000000   0.000000000   0.000000000
C        0.250000000   0.250000000   0.250000000
End final coordinates



     Writing output data file diamond.save\

     init_run     :      1.73s CPU      0.33s WALL (       1 calls)
     electrons    :      9.92s CPU      1.74s WALL (       1 calls)
     forces       :      0.12s CPU      0.02s WALL (       1 calls)

     Called by init_run:
     wfcinit      :      1.69s CPU      0.27s WALL (       1 calls)
     potinit      :      0.00s CPU      0.00s WALL (       1 calls)
     hinit0       :      0.05s CPU      0.04s WALL (       1 calls)

     Called by electrons:
     c_bands      :      8.41s CPU      1.46s WALL (       5 calls)
     sum_band     :      1.44s CPU      0.26s WALL (       5 calls)
     v_of_rho     :      0.00s CPU      0.01s WALL (       6 calls)
     mix_rho      :      0.00s CPU      0.01s WALL (       5 calls)

     Called by c_bands:
     init_us_2    :      0.31s CPU      0.05s WALL (     756 calls)
     cegterg      :      7.86s CPU      1.37s WALL (     315 calls)

     Called by sum_band:

     Called by *egterg:
     h_psi        :      7.72s CPU      1.36s WALL (    1080 calls)
     g_psi        :      0.20s CPU      0.02s WALL (     702 calls)
     cdiaghg      :      0.38s CPU      0.04s WALL (    1017 calls)

     Called by h_psi:
     h_psi:pot    :      7.72s CPU      1.33s WALL (    1080 calls)
     h_psi:calbec :      0.00s CPU      0.01s WALL (    1080 calls)
     vloc_psi     :      7.62s CPU      1.29s WALL (    1080 calls)
     add_vuspsi   :      0.09s CPU      0.02s WALL (    1080 calls)

     General routines
     calbec       :      0.00s CPU      0.02s WALL (    1332 calls)
     fft          :      0.00s CPU      0.01s WALL (      19 calls)
     ffts         :      0.00s CPU      0.00s WALL (       5 calls)
     fftw         :      4.11s CPU      0.71s WALL (    9400 calls)

     Parallel routines

     PWSCF        :     11.95s CPU      2.33s WALL


   This run was terminated on:  14:11:33  30Jul2021            

=------------------------------------------------------------------------------=
   JOB DONE.
=------------------------------------------------------------------------------=
