
     Program PWSCF v.6.4.1 starts on 30Jul2021 at 14: 2:28 

     This program is part of the open-source Quantum ESPRESSO suite
     for quantum simulation of materials; please cite
         "P. Giannozzi et al., J. Phys.:Condens. Matter 21 395502 (2009);
         "P. Giannozzi et al., J. Phys.:Condens. Matter 29 465901 (2017);
          URL http://www.quantum-espresso.org", 
     in publications or presentations arising from this work. More details at
     http://www.quantum-espresso.org/quote

     Parallel version (MPI & OpenMP), running on      12 processor cores
     Number of MPI processes:                 1
     Threads/MPI process:                    12

     MPI processes distributed on     1 nodes
     Waiting for input...
     Reading input from standard input
     Message from routine read_cards :
     DEPRECATED: no units specified in CELL_PARAMETERS card

     Current dimensions of program PWSCF are:
     Max number of different atomic species (ntypx) = 10
     Max number of k-points (npk) =  40000
     Max angular momentum in pseudopotentials (lmaxx) =  3

     Subspace diagonalization in iterative solution of the eigenvalue problem:
     a serial algorithm will be used

     Message from routine setup:
     DEPRECATED: symmetry with ibrav=0, use correct ibrav instead

     G-vector sticks info
     --------------------
     sticks:   dense  smooth     PW     G-vecs:    dense   smooth      PW
     Sum         599     599    199                 9897     9897    1819



     bravais-lattice index     =            0
     lattice parameter (alat)  =       6.6641  a.u.
     unit-cell volume          =      73.9867 (a.u.)^3
     number of atoms/cell      =            2
     number of atomic types    =            1
     number of electrons       =         8.00
     number of Kohn-Sham states=            4
     kinetic-energy cutoff     =     100.0000  Ry
     charge density cutoff     =     400.0000  Ry
     convergence threshold     =      1.0E-06
     mixing beta               =       0.7000
     number of iterations used =            8  plain     mixing
     Exchange-correlation      = SLA PZ NOGX NOGC ( 1  1  0  0 0 0)
     nstep                     =           50


     celldm(1)=   6.664070  celldm(2)=   0.000000  celldm(3)=   0.000000
     celldm(4)=   0.000000  celldm(5)=   0.000000  celldm(6)=   0.000000

     crystal axes: (cart. coord. in units of alat)
               a(1) = (  -0.501000  -0.000000   0.498000 )  
               a(2) = (   0.000000   0.501000   0.498000 )  
               a(3) = (  -0.501000   0.501000   0.000000 )  

     reciprocal axes: (cart. coord. in units 2 pi/alat)
               b(1) = ( -0.998004 -0.998004  1.004016 )  
               b(2) = (  0.998004  0.998004  1.004016 )  
               b(3) = ( -0.998004  0.998004 -1.004016 )  


     PseudoPot. # 1 for C  read from file:
     ./\C.pz-vbc.UPF
     MD5 check sum: f697e42eaa1e52b77fcf7925dd36a1dd
     Pseudo is Norm-conserving, Zval =  4.0
     Generated by new atomic code, or converted to UPF format
     Using radial grid of  269 points,  1 beta functions with: 
                l(1) =   0

     atomic species   valence    mass     pseudopotential
        C              4.00     1.00000     C ( 1.00)

     16 Sym. Ops., with inversion, found ( 8 have fractional translation)



   Cartesian axes

     site n.     atom                  positions (alat units)
         1           C   tau(   1) = (   0.0000000   0.0000000   0.0000000  )
         2           C   tau(   2) = (  -0.2505000   0.2505000   0.2490000  )

     number of k points=    63
                       cart. coord. in units 2pi/alat
        k(    1) = (  -0.0831670   0.0831670   0.0836680), wk =   0.0185185
        k(    2) = (  -0.2495010   0.2495010  -0.0836680), wk =   0.0185185
        k(    3) = (  -0.4158350   0.4158350  -0.2510040), wk =   0.0185185
        k(    4) = (   0.4158350  -0.4158350   0.5856760), wk =   0.0185185
        k(    5) = (   0.2495010  -0.2495010   0.4183400), wk =   0.0185185
        k(    6) = (   0.0831670  -0.0831670   0.2510040), wk =   0.0185185
        k(    7) = (   0.0831670   0.2495010   0.2510040), wk =   0.0370370
        k(    8) = (  -0.0831670   0.4158350   0.0836680), wk =   0.0370370
        k(    9) = (  -0.2495010   0.5821690  -0.0836680), wk =   0.0370370
        k(   10) = (   0.5821690  -0.2495010   0.7530120), wk =   0.0370370
        k(   11) = (   0.4158350  -0.0831670   0.5856760), wk =   0.0370370
        k(   12) = (   0.2495010   0.0831670   0.4183400), wk =   0.0370370
        k(   13) = (   0.2495010   0.4158350   0.4183400), wk =   0.0370370
        k(   14) = (   0.0831670   0.5821690   0.2510040), wk =   0.0370370
        k(   15) = (  -0.0831670   0.7485030   0.0836680), wk =   0.0370370
        k(   16) = (   0.7485030  -0.0831670   0.9203481), wk =   0.0370370
        k(   17) = (   0.5821690   0.0831670   0.7530120), wk =   0.0370370
        k(   18) = (   0.4158350   0.2495010   0.5856760), wk =   0.0370370
        k(   19) = (  -0.5821690  -0.4158350  -0.4183400), wk =   0.0370370
        k(   20) = (  -0.7485030  -0.2495010  -0.5856760), wk =   0.0370370
        k(   21) = (  -0.9148370  -0.0831670  -0.7530120), wk =   0.0370370
        k(   22) = (  -0.0831670  -0.9148370   0.0836680), wk =   0.0370370
        k(   23) = (  -0.2495010  -0.7485030  -0.0836680), wk =   0.0370370
        k(   24) = (  -0.4158350  -0.5821690  -0.2510040), wk =   0.0370370
        k(   25) = (  -0.4158350  -0.2495010  -0.2510040), wk =   0.0370370
        k(   26) = (  -0.5821690  -0.0831670  -0.4183400), wk =   0.0370370
        k(   27) = (  -0.7485030   0.0831670  -0.5856760), wk =   0.0370370
        k(   28) = (   0.0831670  -0.7485030   0.2510040), wk =   0.0370370
        k(   29) = (  -0.0831670  -0.5821690   0.0836680), wk =   0.0370370
        k(   30) = (  -0.2495010  -0.4158350  -0.0836680), wk =   0.0370370
        k(   31) = (  -0.2495010  -0.0831670  -0.0836680), wk =   0.0370370
        k(   32) = (  -0.4158350   0.0831670  -0.2510040), wk =   0.0370370
        k(   33) = (  -0.5821690   0.2495010  -0.4183400), wk =   0.0370370
        k(   34) = (  -0.0831670   0.0831670   0.4183400), wk =   0.0185185
        k(   35) = (  -0.2495010   0.2495010   0.2510040), wk =   0.0185185
        k(   36) = (  -0.4158350   0.4158350   0.0836680), wk =   0.0185185
        k(   37) = (   0.4158350  -0.4158350   0.9203481), wk =   0.0185185
        k(   38) = (   0.2495010  -0.2495010   0.7530120), wk =   0.0185185
        k(   39) = (   0.0831670  -0.0831670   0.5856760), wk =   0.0185185
        k(   40) = (   0.0831670   0.2495010   0.5856760), wk =   0.0370370
        k(   41) = (  -0.0831670   0.4158350   0.4183400), wk =   0.0370370
        k(   42) = (  -0.2495010   0.5821690   0.2510040), wk =   0.0370370
        k(   43) = (   0.5821690  -0.2495010   1.0876841), wk =   0.0370370
        k(   44) = (   0.4158350  -0.0831670   0.9203481), wk =   0.0370370
        k(   45) = (   0.2495010   0.0831670   0.7530120), wk =   0.0370370
        k(   46) = (  -0.7485030  -0.5821690  -0.2510040), wk =   0.0370370
        k(   47) = (  -0.9148370  -0.4158350  -0.4183400), wk =   0.0370370
        k(   48) = (  -1.0811710  -0.2495010  -0.5856760), wk =   0.0370370
        k(   49) = (  -0.2495010  -1.0811710   0.2510040), wk =   0.0370370
        k(   50) = (  -0.4158350  -0.9148370   0.0836680), wk =   0.0370370
        k(   51) = (  -0.5821690  -0.7485030  -0.0836680), wk =   0.0370370
        k(   52) = (  -0.5821690  -0.4158350  -0.0836680), wk =   0.0370370
        k(   53) = (  -0.7485030  -0.2495010  -0.2510040), wk =   0.0370370
        k(   54) = (  -0.9148370  -0.0831670  -0.4183400), wk =   0.0370370
        k(   55) = (  -0.0831670   0.0831670   0.7530120), wk =   0.0185185
        k(   56) = (  -0.2495010   0.2495010   0.5856760), wk =   0.0185185
        k(   57) = (  -0.4158350   0.4158350   0.4183400), wk =   0.0185185
        k(   58) = (   0.4158350  -0.4158350   1.2550201), wk =   0.0185185
        k(   59) = (   0.2495010  -0.2495010   1.0876841), wk =   0.0185185
        k(   60) = (   0.0831670  -0.0831670   0.9203481), wk =   0.0185185
        k(   61) = (  -0.9148370  -0.7485030  -0.0836680), wk =   0.0370370
        k(   62) = (  -1.0811710  -0.5821690  -0.2510040), wk =   0.0370370
        k(   63) = (  -1.2475050  -0.4158350  -0.4183400), wk =   0.0370370

     Dense  grid:     9897 G-vectors     FFT dimensions: (  32,  32,  32)

     Estimated max dynamical RAM per process >      11.92 MB

     Initial potential from superposition of free atoms

     starting charge    7.99994, renormalised to    8.00000
     Starting wfcs are    8 randomized atomic wfcs

     total cpu time spent up to now is        0.4 secs

     Self-consistent Calculation

     iteration #  1     ecut=   100.00 Ry     beta= 0.70
     Davidson diagonalization with overlap
     ethr =  1.00E-02,  avg # of iterations =  2.0

     total cpu time spent up to now is        0.7 secs

     total energy              =     -22.78737833 Ry
     Harris-Foulkes estimate   =     -22.86235738 Ry
     estimated scf accuracy    <       0.14093282 Ry

     iteration #  2     ecut=   100.00 Ry     beta= 0.70
     Davidson diagonalization with overlap
     ethr =  1.76E-03,  avg # of iterations =  2.0

     total cpu time spent up to now is        1.0 secs

     total energy              =     -22.80116174 Ry
     Harris-Foulkes estimate   =     -22.80162428 Ry
     estimated scf accuracy    <       0.00178307 Ry

     iteration #  3     ecut=   100.00 Ry     beta= 0.70
     Davidson diagonalization with overlap
     ethr =  2.23E-05,  avg # of iterations =  2.1

     total cpu time spent up to now is        1.4 secs

     total energy              =     -22.80157245 Ry
     Harris-Foulkes estimate   =     -22.80158403 Ry
     estimated scf accuracy    <       0.00006789 Ry

     iteration #  4     ecut=   100.00 Ry     beta= 0.70
     Davidson diagonalization with overlap
     ethr =  8.49E-07,  avg # of iterations =  2.6

     total cpu time spent up to now is        1.7 secs

     total energy              =     -22.80159127 Ry
     Harris-Foulkes estimate   =     -22.80159397 Ry
     estimated scf accuracy    <       0.00000286 Ry

     iteration #  5     ecut=   100.00 Ry     beta= 0.70
     Davidson diagonalization with overlap
     ethr =  3.58E-08,  avg # of iterations =  2.3

     total cpu time spent up to now is        2.1 secs

     End of self-consistent calculation

          k =-0.0832 0.0832 0.0837 (  1247 PWs)   bands (ev):

    -7.7458  12.5011  13.3935  13.4602

          k =-0.2495 0.2495-0.0837 (  1258 PWs)   bands (ev):

    -6.7176   9.0098  11.0137  12.8012

          k =-0.4158 0.4158-0.2510 (  1259 PWs)   bands (ev):

    -4.2007   3.4456  10.0854  11.2819

          k = 0.4158-0.4158 0.5857 (  1236 PWs)   bands (ev):

    -1.9942   0.3979  10.2679  10.4270

          k = 0.2495-0.2495 0.4183 (  1254 PWs)   bands (ev):

    -5.1786   5.2157  10.6457  11.4017

          k = 0.0832-0.0832 0.2510 (  1264 PWs)   bands (ev):

    -7.2240  10.7835  11.9297  12.8560

          k = 0.0832 0.2495 0.2510 (  1259 PWs)   bands (ev):

    -6.7112   8.9940  10.9574  12.8691

          k =-0.0832 0.4158 0.0837 (  1265 PWs)   bands (ev):

    -6.2064   9.0098  10.3058  11.0435

          k =-0.2495 0.5822-0.0837 (  1259 PWs)   bands (ev):

    -4.1967   5.7768   8.0394   9.6135

          k = 0.5822-0.2495 0.7530 (  1246 PWs)   bands (ev):

    -1.0981   1.3382   7.2192   8.8948

          k = 0.4158-0.0832 0.5857 (  1247 PWs)   bands (ev):

    -3.1937   4.1704   6.7413  10.1196

          k = 0.2495 0.0832 0.4183 (  1258 PWs)   bands (ev):

    -5.6811   7.2377   9.4088  11.7406

          k = 0.2495 0.4158 0.4183 (  1255 PWs)   bands (ev):

    -4.1886   3.4247  10.0058  11.3667

          k = 0.0832 0.5822 0.2510 (  1255 PWs)   bands (ev):

    -4.1906   5.7555   7.9903   9.6549

          k =-0.0832 0.7485 0.0837 (  1249 PWs)   bands (ev):

    -2.7129   5.0490   7.2962   7.9067

          k = 0.7485-0.0832 0.9203 (  1245 PWs)   bands (ev):

     0.0537   2.4931   5.4025   7.1070

          k = 0.5822 0.0832 0.7530 (  1246 PWs)   bands (ev):

    -0.2190   2.1425   4.8224   8.3708

          k = 0.4158 0.2495 0.5857 (  1247 PWs)   bands (ev):

    -2.7416   2.0376   8.9109  10.2424

          k =-0.5822-0.4158-0.4183 (  1238 PWs)   bands (ev):

    -2.0056   0.4087  10.1696  10.5171

          k =-0.7485-0.2495-0.5857 (  1246 PWs)   bands (ev):

    -1.0936   1.3228   7.1950   8.8919

          k =-0.9148-0.0832-0.7530 (  1243 PWs)   bands (ev):

     0.0571   2.4898   5.3889   7.0852

          k =-0.0832-0.9148 0.0837 (  1249 PWs)   bands (ev):

    -0.3347   2.3325   6.6419   7.3997

          k =-0.2495-0.7485-0.0837 (  1245 PWs)   bands (ev):

    -2.2486   4.4121   6.5471   7.8142

          k =-0.4158-0.5822-0.2510 (  1247 PWs)   bands (ev):

    -2.7694   2.0734   8.9747  10.1663

          k =-0.4158-0.2495-0.2510 (  1253 PWs)   bands (ev):

    -5.1910   5.2346  10.7150  11.3176

          k =-0.5822-0.0832-0.4183 (  1249 PWs)   bands (ev):

    -3.2115   4.1818   6.7511  10.0775

          k =-0.7485 0.0832-0.5857 (  1245 PWs)   bands (ev):

    -0.2350   2.1459   4.8281   8.3322

          k = 0.0832-0.7485 0.2510 (  1244 PWs)   bands (ev):

    -2.2432   4.3946   6.5245   7.8174

          k =-0.0832-0.5822 0.0837 (  1260 PWs)   bands (ev):

    -4.6900   7.2786   8.8654   8.9034

          k =-0.2495-0.4158-0.0837 (  1257 PWs)   bands (ev):

    -5.6999   7.2709   9.4775  11.6498

          k =-0.2495-0.0832-0.0837 (  1269 PWs)   bands (ev):

    -7.2304  10.7968  11.9821  12.7914

          k =-0.4158 0.0832-0.2510 (  1260 PWs)   bands (ev):

    -5.6936   7.2512   9.4249  11.7056

          k =-0.5822 0.2495-0.4183 (  1245 PWs)   bands (ev):

    -2.7585   2.0525   8.8927  10.2362

          k =-0.0832 0.0832 0.4183 (  1258 PWs)   bands (ev):

    -6.1875   8.9896  10.2418  11.1169

          k =-0.2495 0.2495 0.2510 (  1254 PWs)   bands (ev):

    -6.2013   7.0239  11.8984  11.9863

          k =-0.4158 0.4158 0.0837 (  1254 PWs)   bands (ev):

    -4.6978   5.6027   8.0963  11.4476

          k = 0.4158-0.4158 0.9203 (  1246 PWs)   bands (ev):

    -1.8438   2.9560   5.6928   9.6856

          k = 0.2495-0.2495 0.7530 (  1242 PWs)   bands (ev):

    -1.7587   2.7650   6.9062   8.6137

          k = 0.0832-0.0832 0.5857 (  1261 PWs)   bands (ev):

    -4.6530   7.2935   8.8191   8.9105

          k = 0.0832 0.2495 0.5857 (  1257 PWs)   bands (ev):

    -4.1601   5.7385   7.9759   9.6909

          k =-0.0832 0.4158 0.4183 (  1257 PWs)   bands (ev):

    -4.6794   5.5615   8.0245  11.5349

          k =-0.2495 0.5822 0.2510 (  1255 PWs)   bands (ev):

    -3.7055   3.8046   9.3614   9.5620

          k = 0.5822-0.2495 1.0877 (  1242 PWs)   bands (ev):

    -1.3643   3.2147   5.7784   7.8804

          k = 0.4158-0.0832 0.9203 (  1240 PWs)   bands (ev):

     0.7000   2.4197   4.7325   6.3202

          k = 0.2495 0.0832 0.7530 (  1250 PWs)   bands (ev):

    -2.1908   4.4094   6.5386   7.7783

          k =-0.7485-0.5822-0.2510 (  1243 PWs)   bands (ev):

    -1.0664   1.3101   7.2782   8.8393

          k =-0.9148-0.4158-0.4183 (  1243 PWs)   bands (ev):

    -1.8131   2.8963   5.6061   9.7806

          k =-1.0812-0.2495-0.5857 (  1244 PWs)   bands (ev):

    -1.3503   3.1727   5.7191   7.9130

          k =-0.2495-1.0812 0.2510 (  1247 PWs)   bands (ev):

     0.2512   2.1419   4.4566   8.2550

          k =-0.4158-0.9148 0.0837 (  1236 PWs)   bands (ev):

     0.6553   2.4153   4.7271   6.3727

          k =-0.5822-0.7485-0.0837 (  1246 PWs)   bands (ev):

    -0.2465   2.1961   4.9053   8.2666

          k =-0.5822-0.4158-0.0837 (  1249 PWs)   bands (ev):

    -3.2288   4.2258   6.8228  10.0136

          k =-0.7485-0.2495-0.2510 (  1243 PWs)   bands (ev):

    -1.8081   2.7980   6.8076   8.7032

          k =-0.9148-0.0832-0.4183 (  1241 PWs)   bands (ev):

     0.6548   2.3927   4.7138   6.3457

          k =-0.0832 0.0832 0.7530 (  1249 PWs)   bands (ev):

    -2.6534   5.1458   7.2417   7.8197

          k =-0.2495 0.2495 0.5857 (  1258 PWs)   bands (ev):

    -3.6756   3.7720   9.4694   9.4770

          k =-0.4158 0.4158 0.4183 (  1250 PWs)   bands (ev):

    -3.2390   1.6124  10.9219  11.0306

          k = 0.4158-0.4158 1.2550 (  1246 PWs)   bands (ev):

    -1.5583   0.9053   8.2089   9.9611

          k = 0.2495-0.2495 1.0877 (  1244 PWs)   bands (ev):

     0.2998   2.1660   4.5034   8.1609

          k = 0.0832-0.0832 0.9203 (  1248 PWs)   bands (ev):

    -0.2511   2.4359   6.5613   7.3075

          k =-0.9148-0.7485-0.0837 (  1245 PWs)   bands (ev):

     0.1305   2.5665   5.3520   7.0146

          k =-1.0812-0.5822-0.2510 (  1242 PWs)   bands (ev):

    -1.3122   3.1608   5.7146   7.9516

          k =-1.2475-0.4158-0.4183 (  1236 PWs)   bands (ev):

    -1.5424   0.8785   8.1104  10.0526

     highest occupied level (ev):    13.4602

!    total energy              =     -22.80159274 Ry
     Harris-Foulkes estimate   =     -22.80159218 Ry
     estimated scf accuracy    <       0.00000001 Ry

     The total energy is the sum of the following terms:

     one-electron contribution =       8.33420333 Ry
     hartree contribution      =       1.84388542 Ry
     xc contribution           =      -7.11272956 Ry
     ewald contribution        =     -25.86695193 Ry

     convergence has been achieved in   5 iterations

     Forces acting on atoms (cartesian axes, Ry/au):

     atom    1 type  1   force =     0.00000000    0.00000000   -0.00000000
     atom    2 type  1   force =     0.00000000    0.00000000    0.00000000

     Total force =     0.000000     Total SCF correction =     0.000000

     BFGS Geometry Optimization

     bfgs converged in   1 scf cycles and   0 bfgs steps
     (criteria: energy <  1.0E-04 Ry, force <  1.0E-03 Ry/Bohr)

     End of BFGS Geometry Optimization

     Final energy             =     -22.8015927359 Ry
Begin final coordinates

ATOMIC_POSITIONS (crystal)
C        0.000000000   0.000000000   0.000000000
C        0.250000000   0.250000000   0.250000000
End final coordinates



     Writing output data file diamond.save\

     init_run     :      1.64s CPU      0.32s WALL (       1 calls)
     electrons    :     10.06s CPU      1.70s WALL (       1 calls)
     forces       :      0.05s CPU      0.02s WALL (       1 calls)

     Called by init_run:
     wfcinit      :      1.59s CPU      0.27s WALL (       1 calls)
     potinit      :      0.00s CPU      0.00s WALL (       1 calls)
     hinit0       :      0.03s CPU      0.04s WALL (       1 calls)

     Called by electrons:
     c_bands      :      8.53s CPU      1.41s WALL (       5 calls)
     sum_band     :      1.53s CPU      0.28s WALL (       5 calls)
     v_of_rho     :      0.00s CPU      0.01s WALL (       6 calls)
     mix_rho      :      0.00s CPU      0.01s WALL (       5 calls)

     Called by c_bands:
     init_us_2    :      0.28s CPU      0.04s WALL (     756 calls)
     cegterg      :      7.97s CPU      1.33s WALL (     315 calls)

     Called by sum_band:

     Called by *egterg:
     h_psi        :      8.22s CPU      1.31s WALL (    1072 calls)
     g_psi        :      0.08s CPU      0.03s WALL (     694 calls)
     cdiaghg      :      0.17s CPU      0.04s WALL (    1009 calls)

     Called by h_psi:
     h_psi:pot    :      8.14s CPU      1.28s WALL (    1072 calls)
     h_psi:calbec :      0.00s CPU      0.01s WALL (    1072 calls)
     vloc_psi     :      8.14s CPU      1.25s WALL (    1072 calls)
     add_vuspsi   :      0.00s CPU      0.01s WALL (    1072 calls)

     General routines
     calbec       :      0.05s CPU      0.02s WALL (    1324 calls)
     fft          :      0.00s CPU      0.00s WALL (      19 calls)
     ffts         :      0.00s CPU      0.00s WALL (       5 calls)
     fftw         :      4.62s CPU      0.69s WALL (    9388 calls)

     Parallel routines

     PWSCF        :     12.00s CPU      2.26s WALL


   This run was terminated on:  14: 2:30  30Jul2021            

=------------------------------------------------------------------------------=
   JOB DONE.
=------------------------------------------------------------------------------=
