TACC:  Starting up job 4473091 
TACC:  Starting parallel tasks... 

     Program PHONON v.7.0 starts on  9Jun2022 at 17:18:41 

     This program is part of the open-source Quantum ESPRESSO suite
     for quantum simulation of materials; please cite
         "P. Giannozzi et al., J. Phys.:Condens. Matter 21 395502 (2009);
         "P. Giannozzi et al., J. Phys.:Condens. Matter 29 465901 (2017);
         "P. Giannozzi et al., J. Chem. Phys. 152 154105 (2020);
          URL http://www.quantum-espresso.org", 
     in publications or presentations arising from this work. More details at
     http://www.quantum-espresso.org/quote

     Parallel version (MPI), running on  1024 processors

     MPI processes distributed on    32 nodes
     K-points division:     npool     =    1024
     183302 MiB available memory on the printing compute node when the environment starts
 
     Reading input from ph.in
      Title line not specified: using 'default'.

     Reading xml data from directory:

     ./graphene.save/

     IMPORTANT: XC functional enforced from input :
     Exchange-correlation= PW
                           (   1   4   0   0   0   0   0)
     Any further DFT definition will be discarded
     Please, verify this is what you really want

 
     G-vector sticks info
     --------------------
     sticks:   dense  smooth     PW     G-vecs:    dense   smooth      PW
     Sum         583     583    199               115897   115897   21065
 
     Using Slab Decomposition
 
     Message from routine divide_et_impera:
     suboptimal parallelization: some nodes have no k-points
     Reading collected, re-writing distributed wavefunctions


     Dynamical matrices for ( 8, 8, 1)  uniform grid of q-points
     (  10 q-points):
       N         xq(1)         xq(2)         xq(3) 
       1   0.000000000   0.000000000   0.000000000
       2   0.000000000   0.144337567   0.000000000
       3   0.000000000   0.288675135   0.000000000
       4   0.000000000   0.433012702   0.000000000
       5   0.000000000  -0.577350269   0.000000000
       6   0.125000000   0.216506351   0.000000000
       7   0.125000000   0.360843918   0.000000000
       8   0.125000000   0.505181486   0.000000000
       9   0.250000000   0.433012702   0.000000000
      10   0.250000000   0.577350269   0.000000000

     Saving dvscf to file. Distribute only q points, not irreducible represetations.

     Calculation of q =    0.0000000   0.0000000   0.0000000

     default                                                                    

     bravais-lattice index     =            4
     lattice parameter (alat)  =       4.6270  a.u.
     unit-cell volume          =     857.8851 (a.u.)^3
     number of atoms/cell      =            2
     number of atomic types    =            1
     kinetic-energy cut-off    =     100.0000  Ry
     charge density cut-off    =     400.0000  Ry
     convergence threshold     =      1.0E-14
     beta                      =       0.7000
     number of iterations used =            4
     Exchange-correlation= PW
                           (   1   4   0   0   0   0   0)


     celldm(1)=    4.62700  celldm(2)=    0.00000  celldm(3)=   10.00000
     celldm(4)=    0.00000  celldm(5)=    0.00000  celldm(6)=    0.00000

     crystal axes: (cart. coord. in units of alat)
               a(1) = (  1.0000  0.0000  0.0000 )  
               a(2) = ( -0.5000  0.8660  0.0000 )  
               a(3) = (  0.0000  0.0000 10.0000 )  

     reciprocal axes: (cart. coord. in units 2 pi/alat)
               b(1) = (  1.0000  0.5774  0.0000 )  
               b(2) = (  0.0000  1.1547  0.0000 )  
               b(3) = (  0.0000  0.0000  0.1000 )  


     Atoms inside the unit cell: 

     Cartesian axes

     site n.  atom      mass           positions (alat units)
        1     C   12.0107   tau(    1) = (    0.00000    0.57735    0.00000  )
        2     C   12.0107   tau(    2) = (    0.50000    0.28868    0.00000  )

     Computing dynamical matrix for 
                    q = (   0.0000000   0.0000000   0.0000000 )
 
     25 Sym.Ops. (with q -> -q+G )


     G cutoff =  216.9198  ( 115897 G-vectors)     FFT grid: ( 30, 30,300)

     number of k points=   272  Methfessel-Paxton smearing, width (Ry)=  0.0050

     PseudoPot. # 1 for C  read from file:
     ../pseudo/C.upf
     MD5 check sum: c9bd9c91d9c48f3c1b9c51e450525728
     Pseudo is Norm-conserving + core correction, Zval =  4.0
     Generated using ONCVPSP code by D. R. Hamann
     Using radial grid of 1234 points,  4 beta functions with: 
                l(1) =   0
                l(2) =   0
                l(3) =   1
                l(4) =   1

     Mode symmetry, D_6h(6/mmm) point group:


     Atomic displacements:
     There are    4 irreducible representations

     Representation     1      1 modes -  To be done

     Representation     2      2 modes -  To be done

     Representation     3      1 modes -  To be done

     Representation     4      2 modes -  To be done



     Alpha used in Ewald sum =   2.8000
     PHONON       :      5.73s CPU      6.35s WALL



     Representation #   1 mode #   1

     Self-consistent Calculation
 
     Pert. #  1: Fermi energy shift (Ry) =     0.0000E+00     0.0000E+00

      iter #   1 total cpu time :     7.3 secs   av.it.:   5.6
      thresh= 1.000E-02 alpha_mix =  0.700 |ddv_scf|^2 =  2.096E-09
 
     Pert. #  1: Fermi energy shift (Ry) =     0.0000E+00     0.0000E+00

      iter #   2 total cpu time :     9.0 secs   av.it.:  11.2
      thresh= 4.578E-06 alpha_mix =  0.700 |ddv_scf|^2 =  8.336E-11
 
     Pert. #  1: Fermi energy shift (Ry) =     0.0000E+00     0.0000E+00

      iter #   3 total cpu time :    10.7 secs   av.it.:  10.8
      thresh= 9.130E-07 alpha_mix =  0.700 |ddv_scf|^2 =  2.023E-12
 
     Pert. #  1: Fermi energy shift (Ry) =     5.5145E-25     0.0000E+00

      iter #   4 total cpu time :    11.8 secs   av.it.:  10.9
      thresh= 1.422E-07 alpha_mix =  0.700 |ddv_scf|^2 =  2.694E-16

     End of self-consistent calculation

     Convergence has been achieved 


     Representation #   2 modes #   2   3

     Self-consistent Calculation
 
     Pert. #  1: Fermi energy shift (Ry) =     2.7466E-18     3.0612E-41
     Pert. #  2: Fermi energy shift (Ry) =    -2.0600E-18     2.1428E-40

      iter #   1 total cpu time :    14.7 secs   av.it.:   6.8
      thresh= 1.000E-02 alpha_mix =  0.700 |ddv_scf|^2 =  8.152E-09
 
     Pert. #  1: Fermi energy shift (Ry) =    -7.2280E-20     3.3673E-40
     Pert. #  2: Fermi energy shift (Ry) =    -3.4333E-19    -5.2040E-40

      iter #   2 total cpu time :    17.0 secs   av.it.:  12.9
      thresh= 9.029E-06 alpha_mix =  0.700 |ddv_scf|^2 =  2.671E-11
 
     Pert. #  1: Fermi energy shift (Ry) =    -5.4210E-19     3.3673E-40
     Pert. #  2: Fermi energy shift (Ry) =     1.8070E-20    -5.2040E-40

      iter #   3 total cpu time :    20.0 secs   av.it.:  12.6
      thresh= 5.168E-07 alpha_mix =  0.700 |ddv_scf|^2 =  1.568E-12
 
     Pert. #  1: Fermi energy shift (Ry) =    -5.7824E-19     3.3673E-40
     Pert. #  2: Fermi energy shift (Ry) =    -1.9877E-19    -5.2040E-40

      iter #   4 total cpu time :    23.2 secs   av.it.:  12.8
      thresh= 1.252E-07 alpha_mix =  0.700 |ddv_scf|^2 =  8.631E-16

     End of self-consistent calculation

     Convergence has been achieved 


     Representation #   3 mode #   4

     Self-consistent Calculation
 
     Pert. #  1: Fermi energy shift (Ry) =     0.0000E+00     0.0000E+00

      iter #   1 total cpu time :    25.8 secs   av.it.:   6.9
      thresh= 1.000E-02 alpha_mix =  0.700 |ddv_scf|^2 =  3.701E-05
 
     Pert. #  1: Fermi energy shift (Ry) =     4.4116E-24     0.0000E+00

      iter #   2 total cpu time :    27.1 secs   av.it.:  10.5
      thresh= 6.084E-04 alpha_mix =  0.700 |ddv_scf|^2 =  4.822E-05
 
     Pert. #  1: Fermi energy shift (Ry) =     0.0000E+00     0.0000E+00

      iter #   3 total cpu time :    28.6 secs   av.it.:   9.5
      thresh= 6.944E-04 alpha_mix =  0.700 |ddv_scf|^2 =  2.062E-08
 
     Pert. #  1: Fermi energy shift (Ry) =     2.2058E-24     0.0000E+00

      iter #   4 total cpu time :    30.1 secs   av.it.:   9.5
      thresh= 1.436E-05 alpha_mix =  0.700 |ddv_scf|^2 =  6.666E-10
 
     Pert. #  1: Fermi energy shift (Ry) =    -1.1029E-24     0.0000E+00

      iter #   5 total cpu time :    31.8 secs   av.it.:   9.7
      thresh= 2.582E-06 alpha_mix =  0.700 |ddv_scf|^2 =  2.714E-14
 
     Pert. #  1: Fermi energy shift (Ry) =     1.1029E-24     0.0000E+00

      iter #   6 total cpu time :    33.4 secs   av.it.:  10.8
      thresh= 1.648E-08 alpha_mix =  0.700 |ddv_scf|^2 =  3.436E-15

     End of self-consistent calculation

     Convergence has been achieved 


     Representation #   4 modes #   5   6

     Self-consistent Calculation
 
     Pert. #  1: Fermi energy shift (Ry) =    -3.4466E-25    -4.8148E-35
     Pert. #  2: Fermi energy shift (Ry) =    -8.7026E-25     1.4444E-34

      iter #   1 total cpu time :    35.5 secs   av.it.:   6.5
      thresh= 1.000E-02 alpha_mix =  0.700 |ddv_scf|^2 =  1.678E-09
 
     Pert. #  1: Fermi energy shift (Ry) =     3.3604E-25     0.0000E+00
     Pert. #  2: Fermi energy shift (Ry) =    -2.7142E-25    -2.9779E-37

      iter #   2 total cpu time :    38.1 secs   av.it.:  13.0
      thresh= 4.096E-06 alpha_mix =  0.700 |ddv_scf|^2 =  3.155E-11
 
     Pert. #  1: Fermi energy shift (Ry) =     5.1699E-25    -3.9183E-39
     Pert. #  2: Fermi energy shift (Ry) =    -2.8434E-25     7.3468E-40

      iter #   3 total cpu time :    41.2 secs   av.it.:  13.0
      thresh= 5.617E-07 alpha_mix =  0.700 |ddv_scf|^2 =  7.367E-13
 
     Pert. #  1: Fermi energy shift (Ry) =     8.7888E-25     5.8775E-39
     Pert. #  2: Fermi energy shift (Ry) =     7.4102E-25     9.3060E-39

      iter #   4 total cpu time :    44.2 secs   av.it.:  12.9
      thresh= 8.583E-08 alpha_mix =  0.700 |ddv_scf|^2 =  2.229E-15

     End of self-consistent calculation

     Convergence has been achieved 
 
     Number of q in the star =    1
     List of q in the star:
          1   0.000000000   0.000000000   0.000000000

     Diagonalizing the dynamical matrix

     q = (    0.000000000   0.000000000   0.000000000 ) 

 **************************************************************************
     freq (    1) =      -0.475896 [THz] =     -15.874189 [cm-1]
     freq (    2) =      -0.475896 [THz] =     -15.874189 [cm-1]
     freq (    3) =       0.293007 [THz] =       9.773658 [cm-1]
     freq (    4) =      26.874389 [THz] =     896.433118 [cm-1]
     freq (    5) =      47.949155 [THz] =    1599.411658 [cm-1]
     freq (    6) =      47.949155 [THz] =    1599.411658 [cm-1]
 **************************************************************************

     Mode symmetry, D_6h(6/mmm) point group:

     freq (   1-   2) =        -15.9  [cm-1]   --> E_1u            I  
     freq (   3-   3) =          9.8  [cm-1]   --> A_2u            I  
     freq (   4-   4) =        896.4  [cm-1]   --> B_1g               
     freq (   5-   6) =       1599.4  [cm-1]   --> E_2g            R  

     Calculation of q =    0.0000000   0.1443376   0.0000000

     Subspace diagonalization in iterative solution of the eigenvalue problem:
     a serial algorithm will be used

 
     G-vector sticks info
     --------------------
     sticks:   dense  smooth     PW     G-vecs:    dense   smooth      PW
     Sum         583     583    199               115897   115897   22111
 
     Using Slab Decomposition
 

     Title: 
     default                                                                    


     bravais-lattice index     =            4
     lattice parameter (alat)  =       4.6270  a.u.
     unit-cell volume          =     857.8851 (a.u.)^3
     number of atoms/cell      =            2
     number of atomic types    =            1
     number of electrons       =         8.00
     number of Kohn-Sham states=            8
     kinetic-energy cutoff     =     100.0000  Ry
     charge density cutoff     =     400.0000  Ry
     Exchange-correlation= PW
                           (   1   4   0   0   0   0   0)

     celldm(1)=   4.627000  celldm(2)=   0.000000  celldm(3)=  10.000000
     celldm(4)=   0.000000  celldm(5)=   0.000000  celldm(6)=   0.000000

     crystal axes: (cart. coord. in units of alat)
               a(1) = (   1.000000   0.000000   0.000000 )  
               a(2) = (  -0.500000   0.866025   0.000000 )  
               a(3) = (   0.000000   0.000000  10.000000 )  

     reciprocal axes: (cart. coord. in units 2 pi/alat)
               b(1) = (  1.000000  0.577350  0.000000 )  
               b(2) = (  0.000000  1.154701  0.000000 )  
               b(3) = (  0.000000  0.000000  0.100000 )  


     PseudoPot. # 1 for C  read from file:
     ../pseudo/C.upf
     MD5 check sum: c9bd9c91d9c48f3c1b9c51e450525728
     Pseudo is Norm-conserving + core correction, Zval =  4.0
     Generated using ONCVPSP code by D. R. Hamann
     Using radial grid of 1234 points,  4 beta functions with: 
                l(1) =   0
                l(2) =   0
                l(3) =   1
                l(4) =   1

     atomic species   valence    mass     pseudopotential
        C              4.00    12.01070     C ( 1.00)

     24 Sym. Ops., with inversion, found



   Cartesian axes

     site n.     atom                  positions (alat units)
         1           C   tau(   1) = (   0.0000000   0.5773503   0.0000000  )
         2           C   tau(   2) = (   0.5000000   0.2886751   0.0000000  )

     number of k points=  3104  Methfessel-Paxton smearing, width (Ry)=  0.0050

     Number of k-points >= 100: set verbosity='high' to print them.

     Dense  grid:   115897 G-vectors     FFT dimensions: (  30,  30, 300)

     Estimated max dynamical RAM per process >      54.60 MB

     Estimated total dynamical RAM >      54.60 GB

     The potential is recalculated from file :
     ./_ph0/graphene.q_2/graphene.save/charge-density

     Starting wfcs are    8 atomic wfcs

     Band Structure Calculation
     Davidson diagonalization with overlap

     ethr =  1.25E-10,  avg # of iterations = 33.2

     total cpu time spent up to now is        6.8 secs

     End of band structure calculation

     Number of k-points >= 100: set verbosity='high' to print the bands.

     the Fermi energy is    -2.9206 ev

     Writing config to output data dir ./_ph0/graphene.q_2/graphene.save/

     default                                                                    

     bravais-lattice index     =            4
     lattice parameter (alat)  =       4.6270  a.u.
     unit-cell volume          =     857.8851 (a.u.)^3
     number of atoms/cell      =            2
     number of atomic types    =            1
     kinetic-energy cut-off    =     100.0000  Ry
     charge density cut-off    =     400.0000  Ry
     convergence threshold     =      1.0E-14
     beta                      =       0.7000
     number of iterations used =            4
     Exchange-correlation= PW
                           (   1   4   0   0   0   0   0)


     celldm(1)=    4.62700  celldm(2)=    0.00000  celldm(3)=   10.00000
     celldm(4)=    0.00000  celldm(5)=    0.00000  celldm(6)=    0.00000

     crystal axes: (cart. coord. in units of alat)
               a(1) = (  1.0000  0.0000  0.0000 )  
               a(2) = ( -0.5000  0.8660  0.0000 )  
               a(3) = (  0.0000  0.0000 10.0000 )  

     reciprocal axes: (cart. coord. in units 2 pi/alat)
               b(1) = (  1.0000  0.5774  0.0000 )  
               b(2) = (  0.0000  1.1547  0.0000 )  
               b(3) = (  0.0000  0.0000  0.1000 )  


     Atoms inside the unit cell: 

     Cartesian axes

     site n.  atom      mass           positions (alat units)
        1     C   12.0107   tau(    1) = (    0.00000    0.57735    0.00000  )
        2     C   12.0107   tau(    2) = (    0.50000    0.28868    0.00000  )

     Computing dynamical matrix for 
                    q = (   0.0000000   0.1443376   0.0000000 )
 
      4 Sym.Ops. (no q -> -q+G )


     G cutoff =  216.9198  ( 115897 G-vectors)     FFT grid: ( 30, 30,300)

     number of k points=  3104  Methfessel-Paxton smearing, width (Ry)=  0.0050

     PseudoPot. # 1 for C  read from file:
     ../pseudo/C.upf
     MD5 check sum: c9bd9c91d9c48f3c1b9c51e450525728
     Pseudo is Norm-conserving + core correction, Zval =  4.0
     Generated using ONCVPSP code by D. R. Hamann
     Using radial grid of 1234 points,  4 beta functions with: 
                l(1) =   0
                l(2) =   0
                l(3) =   1
                l(4) =   1

     Mode symmetry, C_2v (mm2)  point group:


     Atomic displacements:
     There are    6 irreducible representations

     Representation     1      1 modes -  To be done

     Representation     2      1 modes -  To be done

     Representation     3      1 modes -  To be done

     Representation     4      1 modes -  To be done

     Representation     5      1 modes -  To be done

     Representation     6      1 modes -  To be done



     Alpha used in Ewald sum =   2.8000
     PHONON       :     46.38s CPU     58.23s WALL



     Representation #   1 mode #   1

     Self-consistent Calculation

      iter #   1 total cpu time :    59.2 secs   av.it.:   7.1
      thresh= 1.000E-02 alpha_mix =  0.700 |ddv_scf|^2 =  1.975E-05

      iter #   2 total cpu time :    61.2 secs   av.it.:  10.7
      thresh= 4.444E-04 alpha_mix =  0.700 |ddv_scf|^2 =  1.444E-04

      iter #   3 total cpu time :    63.2 secs   av.it.:   8.8
      thresh= 1.202E-03 alpha_mix =  0.700 |ddv_scf|^2 =  2.511E-09

      iter #   4 total cpu time :    65.4 secs   av.it.:  12.2
      thresh= 5.011E-06 alpha_mix =  0.700 |ddv_scf|^2 =  1.511E-09

      iter #   5 total cpu time :    67.7 secs   av.it.:  11.6
      thresh= 3.887E-06 alpha_mix =  0.700 |ddv_scf|^2 =  5.517E-11

      iter #   6 total cpu time :    69.8 secs   av.it.:  10.6
      thresh= 7.428E-07 alpha_mix =  0.700 |ddv_scf|^2 =  7.105E-13

      iter #   7 total cpu time :    71.8 secs   av.it.:  10.7
      thresh= 8.429E-08 alpha_mix =  0.700 |ddv_scf|^2 =  3.524E-13

      iter #   8 total cpu time :    73.9 secs   av.it.:  10.3
      thresh= 5.936E-08 alpha_mix =  0.700 |ddv_scf|^2 =  3.665E-14

      iter #   9 total cpu time :    76.0 secs   av.it.:  10.8
      thresh= 1.914E-08 alpha_mix =  0.700 |ddv_scf|^2 =  1.235E-16

     End of self-consistent calculation

     Convergence has been achieved 


     Representation #   2 mode #   2

     Self-consistent Calculation

      iter #   1 total cpu time :    77.8 secs   av.it.:   7.1
      thresh= 1.000E-02 alpha_mix =  0.700 |ddv_scf|^2 =  1.975E-05

      iter #   2 total cpu time :    79.7 secs   av.it.:  10.7
      thresh= 4.444E-04 alpha_mix =  0.700 |ddv_scf|^2 =  1.444E-04

      iter #   3 total cpu time :    81.5 secs   av.it.:   8.8
      thresh= 1.202E-03 alpha_mix =  0.700 |ddv_scf|^2 =  2.511E-09

      iter #   4 total cpu time :    83.6 secs   av.it.:  12.2
      thresh= 5.011E-06 alpha_mix =  0.700 |ddv_scf|^2 =  1.511E-09

      iter #   5 total cpu time :    85.8 secs   av.it.:  11.6
      thresh= 3.887E-06 alpha_mix =  0.700 |ddv_scf|^2 =  5.517E-11

      iter #   6 total cpu time :    87.9 secs   av.it.:  10.6
      thresh= 7.428E-07 alpha_mix =  0.700 |ddv_scf|^2 =  7.105E-13

      iter #   7 total cpu time :    89.9 secs   av.it.:  10.7
      thresh= 8.429E-08 alpha_mix =  0.700 |ddv_scf|^2 =  3.524E-13

      iter #   8 total cpu time :    92.0 secs   av.it.:  10.3
      thresh= 5.936E-08 alpha_mix =  0.700 |ddv_scf|^2 =  3.665E-14

      iter #   9 total cpu time :    94.1 secs   av.it.:  10.8
      thresh= 1.914E-08 alpha_mix =  0.700 |ddv_scf|^2 =  1.235E-16

     End of self-consistent calculation

     Convergence has been achieved 


     Representation #   3 mode #   3

     Self-consistent Calculation

      iter #   1 total cpu time :    95.9 secs   av.it.:   6.9
      thresh= 1.000E-02 alpha_mix =  0.700 |ddv_scf|^2 =  2.296E-08

      iter #   2 total cpu time :    97.9 secs   av.it.:  12.3
      thresh= 1.515E-05 alpha_mix =  0.700 |ddv_scf|^2 =  1.129E-10

      iter #   3 total cpu time :    99.9 secs   av.it.:  12.1
      thresh= 1.063E-06 alpha_mix =  0.700 |ddv_scf|^2 =  6.722E-12

      iter #   4 total cpu time :   102.0 secs   av.it.:  12.3
      thresh= 2.593E-07 alpha_mix =  0.700 |ddv_scf|^2 =  3.012E-14

      iter #   5 total cpu time :   104.0 secs   av.it.:  12.0
      thresh= 1.735E-08 alpha_mix =  0.700 |ddv_scf|^2 =  3.575E-16

     End of self-consistent calculation

     Convergence has been achieved 


     Representation #   4 mode #   4

     Self-consistent Calculation

      iter #   1 total cpu time :   105.7 secs   av.it.:   6.9
      thresh= 1.000E-02 alpha_mix =  0.700 |ddv_scf|^2 =  2.296E-08

      iter #   2 total cpu time :   107.7 secs   av.it.:  12.3
      thresh= 1.515E-05 alpha_mix =  0.700 |ddv_scf|^2 =  1.129E-10

      iter #   3 total cpu time :   109.8 secs   av.it.:  12.1
      thresh= 1.063E-06 alpha_mix =  0.700 |ddv_scf|^2 =  6.722E-12

      iter #   4 total cpu time :   112.0 secs   av.it.:  12.3
      thresh= 2.593E-07 alpha_mix =  0.700 |ddv_scf|^2 =  3.012E-14

      iter #   5 total cpu time :   114.0 secs   av.it.:  12.0
      thresh= 1.735E-08 alpha_mix =  0.700 |ddv_scf|^2 =  3.575E-16

     End of self-consistent calculation

     Convergence has been achieved 


     Representation #   5 mode #   5

     Self-consistent Calculation

      iter #   1 total cpu time :   115.7 secs   av.it.:   7.0
      thresh= 1.000E-02 alpha_mix =  0.700 |ddv_scf|^2 =  2.592E-06

      iter #   2 total cpu time :   117.3 secs   av.it.:  11.2
      thresh= 1.610E-04 alpha_mix =  0.700 |ddv_scf|^2 =  1.385E-06

      iter #   3 total cpu time :   119.2 secs   av.it.:  10.6
      thresh= 1.177E-04 alpha_mix =  0.700 |ddv_scf|^2 =  1.878E-10

      iter #   4 total cpu time :   121.4 secs   av.it.:  11.1
      thresh= 1.370E-06 alpha_mix =  0.700 |ddv_scf|^2 =  8.398E-12

      iter #   5 total cpu time :   123.4 secs   av.it.:  11.1
      thresh= 2.898E-07 alpha_mix =  0.700 |ddv_scf|^2 =  1.425E-14

      iter #   6 total cpu time :   125.3 secs   av.it.:  11.3
      thresh= 1.194E-08 alpha_mix =  0.700 |ddv_scf|^2 =  9.029E-17

     End of self-consistent calculation

     Convergence has been achieved 


     Representation #   6 mode #   6

     Self-consistent Calculation

      iter #   1 total cpu time :   127.1 secs   av.it.:   7.0
      thresh= 1.000E-02 alpha_mix =  0.700 |ddv_scf|^2 =  2.592E-06

      iter #   2 total cpu time :   129.0 secs   av.it.:  11.2
      thresh= 1.610E-04 alpha_mix =  0.700 |ddv_scf|^2 =  1.385E-06

      iter #   3 total cpu time :   130.8 secs   av.it.:  10.6
      thresh= 1.177E-04 alpha_mix =  0.700 |ddv_scf|^2 =  1.878E-10

      iter #   4 total cpu time :   132.7 secs   av.it.:  11.1
      thresh= 1.370E-06 alpha_mix =  0.700 |ddv_scf|^2 =  8.398E-12

      iter #   5 total cpu time :   134.8 secs   av.it.:  11.1
      thresh= 2.898E-07 alpha_mix =  0.700 |ddv_scf|^2 =  1.425E-14

      iter #   6 total cpu time :   136.8 secs   av.it.:  11.3
      thresh= 1.194E-08 alpha_mix =  0.700 |ddv_scf|^2 =  9.029E-17

     End of self-consistent calculation

     Convergence has been achieved 
 
     Number of q in the star =    6
     List of q in the star:
          1   0.000000000   0.144337567   0.000000000
          2   0.000000000  -0.144337567   0.000000000
          3   0.125000000   0.072168784   0.000000000
          4  -0.125000000  -0.072168784   0.000000000
          5   0.125000000  -0.072168784   0.000000000
          6  -0.125000000   0.072168784   0.000000000

     Diagonalizing the dynamical matrix

     q = (    0.000000000   0.144337567   0.000000000 ) 

 **************************************************************************
     freq (    1) =       1.189482 [THz] =      39.676847 [cm-1]
     freq (    2) =       7.839497 [THz] =     261.497460 [cm-1]
     freq (    3) =      12.624637 [THz] =     421.112562 [cm-1]
     freq (    4) =      26.474190 [THz] =     883.083921 [cm-1]
     freq (    5) =      47.061815 [THz] =    1569.813160 [cm-1]
     freq (    6) =      49.111362 [THz] =    1638.178702 [cm-1]
 **************************************************************************

     Mode symmetry, C_2v (mm2)  point group:

     freq (   1-   1) =         39.7  [cm-1]   --> B_2  D_4  S_4      
     freq (   2-   2) =        261.5  [cm-1]   --> B_1  D_3  S_3      
     freq (   3-   3) =        421.1  [cm-1]   --> A_1  D_1  S_1      
     freq (   4-   4) =        883.1  [cm-1]   --> B_2  D_4  S_4      
     freq (   5-   5) =       1569.8  [cm-1]   --> B_1  D_3  S_3      
     freq (   6-   6) =       1638.2  [cm-1]   --> A_1  D_1  S_1      

     Calculation of q =    0.0000000   0.2886751   0.0000000
 
     G-vector sticks info
     --------------------
     sticks:   dense  smooth     PW     G-vecs:    dense   smooth      PW
     Sum         583     583    199               115897   115897   23097
 
     Using Slab Decomposition
 

     Title: 
     default                                                                    


     bravais-lattice index     =            4
     lattice parameter (alat)  =       4.6270  a.u.
     unit-cell volume          =     857.8851 (a.u.)^3
     number of atoms/cell      =            2
     number of atomic types    =            1
     number of electrons       =         8.00
     number of Kohn-Sham states=            8
     kinetic-energy cutoff     =     100.0000  Ry
     charge density cutoff     =     400.0000  Ry
     Exchange-correlation= PW
                           (   1   4   0   0   0   0   0)

     celldm(1)=   4.627000  celldm(2)=   0.000000  celldm(3)=  10.000000
     celldm(4)=   0.000000  celldm(5)=   0.000000  celldm(6)=   0.000000

     crystal axes: (cart. coord. in units of alat)
               a(1) = (   1.000000   0.000000   0.000000 )  
               a(2) = (  -0.500000   0.866025   0.000000 )  
               a(3) = (   0.000000   0.000000  10.000000 )  

     reciprocal axes: (cart. coord. in units 2 pi/alat)
               b(1) = (  1.000000  0.577350  0.000000 )  
               b(2) = (  0.000000  1.154701  0.000000 )  
               b(3) = (  0.000000  0.000000  0.100000 )  


     PseudoPot. # 1 for C  read from file:
     ../pseudo/C.upf
     MD5 check sum: c9bd9c91d9c48f3c1b9c51e450525728
     Pseudo is Norm-conserving + core correction, Zval =  4.0
     Generated using ONCVPSP code by D. R. Hamann
     Using radial grid of 1234 points,  4 beta functions with: 
                l(1) =   0
                l(2) =   0
                l(3) =   1
                l(4) =   1

     atomic species   valence    mass     pseudopotential
        C              4.00    12.01070     C ( 1.00)

     24 Sym. Ops., with inversion, found



   Cartesian axes

     site n.     atom                  positions (alat units)
         1           C   tau(   1) = (   0.0000000   0.5773503   0.0000000  )
         2           C   tau(   2) = (   0.5000000   0.2886751   0.0000000  )

     number of k points=  3104  Methfessel-Paxton smearing, width (Ry)=  0.0050

     Number of k-points >= 100: set verbosity='high' to print them.

     Dense  grid:   115897 G-vectors     FFT dimensions: (  30,  30, 300)

     Estimated max dynamical RAM per process >      54.60 MB

     Estimated total dynamical RAM >      54.60 GB

     The potential is recalculated from file :
     ./_ph0/graphene.q_3/graphene.save/charge-density

     Starting wfcs are    8 atomic wfcs

     Band Structure Calculation
     Davidson diagonalization with overlap

     ethr =  1.25E-10,  avg # of iterations = 33.2

     total cpu time spent up to now is       13.8 secs

     End of band structure calculation

     Number of k-points >= 100: set verbosity='high' to print the bands.

     the Fermi energy is    -2.9206 ev

     Writing config to output data dir ./_ph0/graphene.q_3/graphene.save/

     default                                                                    

     bravais-lattice index     =            4
     lattice parameter (alat)  =       4.6270  a.u.
     unit-cell volume          =     857.8851 (a.u.)^3
     number of atoms/cell      =            2
     number of atomic types    =            1
     kinetic-energy cut-off    =     100.0000  Ry
     charge density cut-off    =     400.0000  Ry
     convergence threshold     =      1.0E-14
     beta                      =       0.7000
     number of iterations used =            4
     Exchange-correlation= PW
                           (   1   4   0   0   0   0   0)


     celldm(1)=    4.62700  celldm(2)=    0.00000  celldm(3)=   10.00000
     celldm(4)=    0.00000  celldm(5)=    0.00000  celldm(6)=    0.00000

     crystal axes: (cart. coord. in units of alat)
               a(1) = (  1.0000  0.0000  0.0000 )  
               a(2) = ( -0.5000  0.8660  0.0000 )  
               a(3) = (  0.0000  0.0000 10.0000 )  

     reciprocal axes: (cart. coord. in units 2 pi/alat)
               b(1) = (  1.0000  0.5774  0.0000 )  
               b(2) = (  0.0000  1.1547  0.0000 )  
               b(3) = (  0.0000  0.0000  0.1000 )  


     Atoms inside the unit cell: 

     Cartesian axes

     site n.  atom      mass           positions (alat units)
        1     C   12.0107   tau(    1) = (    0.00000    0.57735    0.00000  )
        2     C   12.0107   tau(    2) = (    0.50000    0.28868    0.00000  )

     Computing dynamical matrix for 
                    q = (   0.0000000   0.2886751   0.0000000 )
 
      4 Sym.Ops. (no q -> -q+G )


     G cutoff =  216.9198  ( 115897 G-vectors)     FFT grid: ( 30, 30,300)

     number of k points=  3104  Methfessel-Paxton smearing, width (Ry)=  0.0050

     PseudoPot. # 1 for C  read from file:
     ../pseudo/C.upf
     MD5 check sum: c9bd9c91d9c48f3c1b9c51e450525728
     Pseudo is Norm-conserving + core correction, Zval =  4.0
     Generated using ONCVPSP code by D. R. Hamann
     Using radial grid of 1234 points,  4 beta functions with: 
                l(1) =   0
                l(2) =   0
                l(3) =   1
                l(4) =   1

     Mode symmetry, C_2v (mm2)  point group:


     Atomic displacements:
     There are    6 irreducible representations

     Representation     1      1 modes -  To be done

     Representation     2      1 modes -  To be done

     Representation     3      1 modes -  To be done

     Representation     4      1 modes -  To be done

     Representation     5      1 modes -  To be done

     Representation     6      1 modes -  To be done



     Alpha used in Ewald sum =   2.8000
     PHONON       :   1m56.39s CPU   2m30.14s WALL



     Representation #   1 mode #   1

     Self-consistent Calculation

      iter #   1 total cpu time :   151.1 secs   av.it.:   7.2
      thresh= 1.000E-02 alpha_mix =  0.700 |ddv_scf|^2 =  5.360E-06

      iter #   2 total cpu time :   152.7 secs   av.it.:  11.6
      thresh= 2.315E-04 alpha_mix =  0.700 |ddv_scf|^2 =  2.270E-05

      iter #   3 total cpu time :   154.5 secs   av.it.:  10.2
      thresh= 4.764E-04 alpha_mix =  0.700 |ddv_scf|^2 =  7.480E-09

      iter #   4 total cpu time :   156.7 secs   av.it.:  12.1
      thresh= 8.649E-06 alpha_mix =  0.700 |ddv_scf|^2 =  6.669E-10

      iter #   5 total cpu time :   159.1 secs   av.it.:  11.9
      thresh= 2.582E-06 alpha_mix =  0.700 |ddv_scf|^2 =  1.659E-11

      iter #   6 total cpu time :   161.0 secs   av.it.:  11.4
      thresh= 4.074E-07 alpha_mix =  0.700 |ddv_scf|^2 =  8.558E-14

      iter #   7 total cpu time :   163.0 secs   av.it.:  12.0
      thresh= 2.925E-08 alpha_mix =  0.700 |ddv_scf|^2 =  8.746E-16

     End of self-consistent calculation

     Convergence has been achieved 


     Representation #   2 mode #   2

     Self-consistent Calculation

      iter #   1 total cpu time :   164.8 secs   av.it.:   7.2
      thresh= 1.000E-02 alpha_mix =  0.700 |ddv_scf|^2 =  5.360E-06

      iter #   2 total cpu time :   166.7 secs   av.it.:  11.6
      thresh= 2.315E-04 alpha_mix =  0.700 |ddv_scf|^2 =  2.270E-05

      iter #   3 total cpu time :   169.0 secs   av.it.:  10.2
      thresh= 4.764E-04 alpha_mix =  0.700 |ddv_scf|^2 =  7.480E-09

      iter #   4 total cpu time :   171.5 secs   av.it.:  12.1
      thresh= 8.649E-06 alpha_mix =  0.700 |ddv_scf|^2 =  6.669E-10

      iter #   5 total cpu time :   173.6 secs   av.it.:  11.9
      thresh= 2.582E-06 alpha_mix =  0.700 |ddv_scf|^2 =  1.659E-11

      iter #   6 total cpu time :   175.5 secs   av.it.:  11.4
      thresh= 4.074E-07 alpha_mix =  0.700 |ddv_scf|^2 =  8.558E-14

      iter #   7 total cpu time :   177.5 secs   av.it.:  12.0
      thresh= 2.925E-08 alpha_mix =  0.700 |ddv_scf|^2 =  8.744E-16

     End of self-consistent calculation

     Convergence has been achieved 


     Representation #   3 mode #   3

     Self-consistent Calculation

      iter #   1 total cpu time :   179.4 secs   av.it.:   6.9
      thresh= 1.000E-02 alpha_mix =  0.700 |ddv_scf|^2 =  3.123E-08

      iter #   2 total cpu time :   181.2 secs   av.it.:  12.2
      thresh= 1.767E-05 alpha_mix =  0.700 |ddv_scf|^2 =  1.541E-10

      iter #   3 total cpu time :   183.3 secs   av.it.:  12.3
      thresh= 1.241E-06 alpha_mix =  0.700 |ddv_scf|^2 =  8.536E-12

      iter #   4 total cpu time :   185.5 secs   av.it.:  12.3
      thresh= 2.922E-07 alpha_mix =  0.700 |ddv_scf|^2 =  3.233E-14

      iter #   5 total cpu time :   187.4 secs   av.it.:  12.0
      thresh= 1.798E-08 alpha_mix =  0.700 |ddv_scf|^2 =  2.556E-16

     End of self-consistent calculation

     Convergence has been achieved 


     Representation #   4 mode #   4

     Self-consistent Calculation

      iter #   1 total cpu time :   189.2 secs   av.it.:   6.9
      thresh= 1.000E-02 alpha_mix =  0.700 |ddv_scf|^2 =  3.123E-08

      iter #   2 total cpu time :   191.3 secs   av.it.:  12.2
      thresh= 1.767E-05 alpha_mix =  0.700 |ddv_scf|^2 =  1.541E-10

      iter #   3 total cpu time :   193.5 secs   av.it.:  12.3
      thresh= 1.241E-06 alpha_mix =  0.700 |ddv_scf|^2 =  8.536E-12

      iter #   4 total cpu time :   195.6 secs   av.it.:  12.3
      thresh= 2.922E-07 alpha_mix =  0.700 |ddv_scf|^2 =  3.233E-14

      iter #   5 total cpu time :   197.7 secs   av.it.:  12.0
      thresh= 1.798E-08 alpha_mix =  0.700 |ddv_scf|^2 =  2.556E-16

     End of self-consistent calculation

     Convergence has been achieved 


     Representation #   5 mode #   5

     Self-consistent Calculation

      iter #   1 total cpu time :   199.5 secs   av.it.:   7.0
      thresh= 1.000E-02 alpha_mix =  0.700 |ddv_scf|^2 =  4.483E-07

      iter #   2 total cpu time :   201.2 secs   av.it.:  11.7
      thresh= 6.696E-05 alpha_mix =  0.700 |ddv_scf|^2 =  7.162E-08

      iter #   3 total cpu time :   203.2 secs   av.it.:  11.2
      thresh= 2.676E-05 alpha_mix =  0.700 |ddv_scf|^2 =  2.527E-11

      iter #   4 total cpu time :   205.3 secs   av.it.:  11.8
      thresh= 5.027E-07 alpha_mix =  0.700 |ddv_scf|^2 =  8.003E-13

      iter #   5 total cpu time :   207.6 secs   av.it.:  11.7
      thresh= 8.946E-08 alpha_mix =  0.700 |ddv_scf|^2 =  1.463E-14

      iter #   6 total cpu time :   209.5 secs   av.it.:  11.5
      thresh= 1.209E-08 alpha_mix =  0.700 |ddv_scf|^2 =  9.936E-18

     End of self-consistent calculation

     Convergence has been achieved 


     Representation #   6 mode #   6

     Self-consistent Calculation

      iter #   1 total cpu time :   211.2 secs   av.it.:   7.0
      thresh= 1.000E-02 alpha_mix =  0.700 |ddv_scf|^2 =  4.483E-07

      iter #   2 total cpu time :   213.1 secs   av.it.:  11.7
      thresh= 6.696E-05 alpha_mix =  0.700 |ddv_scf|^2 =  7.162E-08

      iter #   3 total cpu time :   214.9 secs   av.it.:  11.2
      thresh= 2.676E-05 alpha_mix =  0.700 |ddv_scf|^2 =  2.527E-11

      iter #   4 total cpu time :   217.3 secs   av.it.:  11.8
      thresh= 5.027E-07 alpha_mix =  0.700 |ddv_scf|^2 =  8.003E-13

      iter #   5 total cpu time :   219.6 secs   av.it.:  11.8
      thresh= 8.946E-08 alpha_mix =  0.700 |ddv_scf|^2 =  1.463E-14

      iter #   6 total cpu time :   221.7 secs   av.it.:  11.5
      thresh= 1.209E-08 alpha_mix =  0.700 |ddv_scf|^2 =  9.936E-18

     End of self-consistent calculation

     Convergence has been achieved 
 
     Number of q in the star =    6
     List of q in the star:
          1   0.000000000   0.288675135   0.000000000
          2   0.000000000  -0.288675135   0.000000000
          3   0.250000000   0.144337567   0.000000000
          4  -0.250000000  -0.144337567   0.000000000
          5   0.250000000  -0.144337567   0.000000000
          6  -0.250000000   0.144337567   0.000000000

     Diagonalizing the dynamical matrix

     q = (    0.000000000   0.288675135   0.000000000 ) 

 **************************************************************************
     freq (    1) =       4.729683 [THz] =     157.765243 [cm-1]
     freq (    2) =      13.965506 [THz] =     465.839148 [cm-1]
     freq (    3) =      24.023350 [THz] =     801.332689 [cm-1]
     freq (    4) =      25.104144 [THz] =     837.384110 [cm-1]
     freq (    5) =      45.224198 [THz] =    1508.516883 [cm-1]
     freq (    6) =      48.546106 [THz] =    1619.323786 [cm-1]
 **************************************************************************

     Mode symmetry, C_2v (mm2)  point group:

     freq (   1-   1) =        157.8  [cm-1]   --> B_2  D_4  S_4      
     freq (   2-   2) =        465.8  [cm-1]   --> B_1  D_3  S_3      
     freq (   3-   3) =        801.3  [cm-1]   --> A_1  D_1  S_1      
     freq (   4-   4) =        837.4  [cm-1]   --> B_2  D_4  S_4      
     freq (   5-   5) =       1508.5  [cm-1]   --> B_1  D_3  S_3      
     freq (   6-   6) =       1619.3  [cm-1]   --> A_1  D_1  S_1      

     Calculation of q =    0.0000000   0.4330127   0.0000000
 
     G-vector sticks info
     --------------------
     sticks:   dense  smooth     PW     G-vecs:    dense   smooth      PW
     Sum         583     583    211               115897   115897   24073
 
     Using Slab Decomposition
 

     Title: 
     default                                                                    


     bravais-lattice index     =            4
     lattice parameter (alat)  =       4.6270  a.u.
     unit-cell volume          =     857.8851 (a.u.)^3
     number of atoms/cell      =            2
     number of atomic types    =            1
     number of electrons       =         8.00
     number of Kohn-Sham states=            8
     kinetic-energy cutoff     =     100.0000  Ry
     charge density cutoff     =     400.0000  Ry
     Exchange-correlation= PW
                           (   1   4   0   0   0   0   0)

     celldm(1)=   4.627000  celldm(2)=   0.000000  celldm(3)=  10.000000
     celldm(4)=   0.000000  celldm(5)=   0.000000  celldm(6)=   0.000000

     crystal axes: (cart. coord. in units of alat)
               a(1) = (   1.000000   0.000000   0.000000 )  
               a(2) = (  -0.500000   0.866025   0.000000 )  
               a(3) = (   0.000000   0.000000  10.000000 )  

     reciprocal axes: (cart. coord. in units 2 pi/alat)
               b(1) = (  1.000000  0.577350  0.000000 )  
               b(2) = (  0.000000  1.154701  0.000000 )  
               b(3) = (  0.000000  0.000000  0.100000 )  


     PseudoPot. # 1 for C  read from file:
     ../pseudo/C.upf
     MD5 check sum: c9bd9c91d9c48f3c1b9c51e450525728
     Pseudo is Norm-conserving + core correction, Zval =  4.0
     Generated using ONCVPSP code by D. R. Hamann
     Using radial grid of 1234 points,  4 beta functions with: 
                l(1) =   0
                l(2) =   0
                l(3) =   1
                l(4) =   1

     atomic species   valence    mass     pseudopotential
        C              4.00    12.01070     C ( 1.00)

     24 Sym. Ops., with inversion, found



   Cartesian axes

     site n.     atom                  positions (alat units)
         1           C   tau(   1) = (   0.0000000   0.5773503   0.0000000  )
         2           C   tau(   2) = (   0.5000000   0.2886751   0.0000000  )

     number of k points=  3104  Methfessel-Paxton smearing, width (Ry)=  0.0050

     Number of k-points >= 100: set verbosity='high' to print them.

     Dense  grid:   115897 G-vectors     FFT dimensions: (  30,  30, 300)

     Estimated max dynamical RAM per process >      54.61 MB

     Estimated total dynamical RAM >      54.61 GB

     The potential is recalculated from file :
     ./_ph0/graphene.q_4/graphene.save/charge-density

     Starting wfcs are    8 atomic wfcs

     Band Structure Calculation
     Davidson diagonalization with overlap

     ethr =  1.25E-10,  avg # of iterations = 33.2

     total cpu time spent up to now is       20.6 secs

     End of band structure calculation

     Number of k-points >= 100: set verbosity='high' to print the bands.

     the Fermi energy is    -2.9206 ev

     Writing config to output data dir ./_ph0/graphene.q_4/graphene.save/

     default                                                                    

     bravais-lattice index     =            4
     lattice parameter (alat)  =       4.6270  a.u.
     unit-cell volume          =     857.8851 (a.u.)^3
     number of atoms/cell      =            2
     number of atomic types    =            1
     kinetic-energy cut-off    =     100.0000  Ry
     charge density cut-off    =     400.0000  Ry
     convergence threshold     =      1.0E-14
     beta                      =       0.7000
     number of iterations used =            4
     Exchange-correlation= PW
                           (   1   4   0   0   0   0   0)


     celldm(1)=    4.62700  celldm(2)=    0.00000  celldm(3)=   10.00000
     celldm(4)=    0.00000  celldm(5)=    0.00000  celldm(6)=    0.00000

     crystal axes: (cart. coord. in units of alat)
               a(1) = (  1.0000  0.0000  0.0000 )  
               a(2) = ( -0.5000  0.8660  0.0000 )  
               a(3) = (  0.0000  0.0000 10.0000 )  

     reciprocal axes: (cart. coord. in units 2 pi/alat)
               b(1) = (  1.0000  0.5774  0.0000 )  
               b(2) = (  0.0000  1.1547  0.0000 )  
               b(3) = (  0.0000  0.0000  0.1000 )  


     Atoms inside the unit cell: 

     Cartesian axes

     site n.  atom      mass           positions (alat units)
        1     C   12.0107   tau(    1) = (    0.00000    0.57735    0.00000  )
        2     C   12.0107   tau(    2) = (    0.50000    0.28868    0.00000  )

     Computing dynamical matrix for 
                    q = (   0.0000000   0.4330127   0.0000000 )
 
      4 Sym.Ops. (no q -> -q+G )


     G cutoff =  216.9198  ( 115897 G-vectors)     FFT grid: ( 30, 30,300)

     number of k points=  3104  Methfessel-Paxton smearing, width (Ry)=  0.0050

     PseudoPot. # 1 for C  read from file:
     ../pseudo/C.upf
     MD5 check sum: c9bd9c91d9c48f3c1b9c51e450525728
     Pseudo is Norm-conserving + core correction, Zval =  4.0
     Generated using ONCVPSP code by D. R. Hamann
     Using radial grid of 1234 points,  4 beta functions with: 
                l(1) =   0
                l(2) =   0
                l(3) =   1
                l(4) =   1

     Mode symmetry, C_2v (mm2)  point group:


     Atomic displacements:
     There are    6 irreducible representations

     Representation     1      1 modes -  To be done

     Representation     2      1 modes -  To be done

     Representation     3      1 modes -  To be done

     Representation     4      1 modes -  To be done

     Representation     5      1 modes -  To be done

     Representation     6      1 modes -  To be done



     Alpha used in Ewald sum =   2.8000
     PHONON       :   3m 0.75s CPU   3m54.84s WALL



     Representation #   1 mode #   1

     Self-consistent Calculation

      iter #   1 total cpu time :   235.8 secs   av.it.:   7.2
      thresh= 1.000E-02 alpha_mix =  0.700 |ddv_scf|^2 =  1.817E-06

      iter #   2 total cpu time :   237.5 secs   av.it.:  12.1
      thresh= 1.348E-04 alpha_mix =  0.700 |ddv_scf|^2 =  3.719E-06

      iter #   3 total cpu time :   239.3 secs   av.it.:  11.1
      thresh= 1.929E-04 alpha_mix =  0.700 |ddv_scf|^2 =  1.509E-08

      iter #   4 total cpu time :   241.4 secs   av.it.:  11.7
      thresh= 1.229E-05 alpha_mix =  0.700 |ddv_scf|^2 =  5.592E-10

      iter #   5 total cpu time :   243.4 secs   av.it.:  11.8
      thresh= 2.365E-06 alpha_mix =  0.700 |ddv_scf|^2 =  3.143E-12

      iter #   6 total cpu time :   245.5 secs   av.it.:  12.1
      thresh= 1.773E-07 alpha_mix =  0.700 |ddv_scf|^2 =  3.121E-14

      iter #   7 total cpu time :   247.5 secs   av.it.:  12.0
      thresh= 1.767E-08 alpha_mix =  0.700 |ddv_scf|^2 =  1.134E-15

     End of self-consistent calculation

     Convergence has been achieved 


     Representation #   2 mode #   2

     Self-consistent Calculation

      iter #   1 total cpu time :   249.3 secs   av.it.:   7.2
      thresh= 1.000E-02 alpha_mix =  0.700 |ddv_scf|^2 =  1.817E-06

      iter #   2 total cpu time :   251.2 secs   av.it.:  12.1
      thresh= 1.348E-04 alpha_mix =  0.700 |ddv_scf|^2 =  3.719E-06

      iter #   3 total cpu time :   253.3 secs   av.it.:  11.1
      thresh= 1.929E-04 alpha_mix =  0.700 |ddv_scf|^2 =  1.509E-08

      iter #   4 total cpu time :   255.3 secs   av.it.:  11.7
      thresh= 1.229E-05 alpha_mix =  0.700 |ddv_scf|^2 =  5.592E-10

      iter #   5 total cpu time :   257.5 secs   av.it.:  11.8
      thresh= 2.365E-06 alpha_mix =  0.700 |ddv_scf|^2 =  3.143E-12

      iter #   6 total cpu time :   259.8 secs   av.it.:  12.1
      thresh= 1.773E-07 alpha_mix =  0.700 |ddv_scf|^2 =  3.121E-14

      iter #   7 total cpu time :   262.1 secs   av.it.:  12.0
      thresh= 1.767E-08 alpha_mix =  0.700 |ddv_scf|^2 =  1.134E-15

     End of self-consistent calculation

     Convergence has been achieved 


     Representation #   3 mode #   3

     Self-consistent Calculation

      iter #   1 total cpu time :   263.9 secs   av.it.:   6.9
      thresh= 1.000E-02 alpha_mix =  0.700 |ddv_scf|^2 =  3.994E-08

      iter #   2 total cpu time :   265.8 secs   av.it.:  12.2
      thresh= 1.998E-05 alpha_mix =  0.700 |ddv_scf|^2 =  2.743E-10

      iter #   3 total cpu time :   267.9 secs   av.it.:  12.2
      thresh= 1.656E-06 alpha_mix =  0.700 |ddv_scf|^2 =  9.449E-12

      iter #   4 total cpu time :   269.9 secs   av.it.:  12.2
      thresh= 3.074E-07 alpha_mix =  0.700 |ddv_scf|^2 =  1.748E-14

      iter #   5 total cpu time :   271.9 secs   av.it.:  12.2
      thresh= 1.322E-08 alpha_mix =  0.700 |ddv_scf|^2 =  1.192E-16

     End of self-consistent calculation

     Convergence has been achieved 


     Representation #   4 mode #   4

     Self-consistent Calculation

      iter #   1 total cpu time :   273.6 secs   av.it.:   6.9
      thresh= 1.000E-02 alpha_mix =  0.700 |ddv_scf|^2 =  3.994E-08

      iter #   2 total cpu time :   275.5 secs   av.it.:  12.2
      thresh= 1.998E-05 alpha_mix =  0.700 |ddv_scf|^2 =  2.743E-10

      iter #   3 total cpu time :   277.5 secs   av.it.:  12.2
      thresh= 1.656E-06 alpha_mix =  0.700 |ddv_scf|^2 =  9.449E-12

      iter #   4 total cpu time :   279.5 secs   av.it.:  12.2
      thresh= 3.074E-07 alpha_mix =  0.700 |ddv_scf|^2 =  1.748E-14

      iter #   5 total cpu time :   281.5 secs   av.it.:  12.2
      thresh= 1.322E-08 alpha_mix =  0.700 |ddv_scf|^2 =  1.192E-16

     End of self-consistent calculation

     Convergence has been achieved 


     Representation #   5 mode #   5

     Self-consistent Calculation

      iter #   1 total cpu time :   283.2 secs   av.it.:   7.0
      thresh= 1.000E-02 alpha_mix =  0.700 |ddv_scf|^2 =  1.233E-07

      iter #   2 total cpu time :   284.9 secs   av.it.:  12.0
      thresh= 3.511E-05 alpha_mix =  0.700 |ddv_scf|^2 =  5.226E-09

      iter #   3 total cpu time :   287.1 secs   av.it.:  11.8
      thresh= 7.229E-06 alpha_mix =  0.700 |ddv_scf|^2 =  2.203E-11

      iter #   4 total cpu time :   289.3 secs   av.it.:  11.9
      thresh= 4.694E-07 alpha_mix =  0.700 |ddv_scf|^2 =  5.673E-13

      iter #   5 total cpu time :   291.3 secs   av.it.:  12.0
      thresh= 7.532E-08 alpha_mix =  0.700 |ddv_scf|^2 =  5.803E-15

     End of self-consistent calculation

     Convergence has been achieved 


     Representation #   6 mode #   6

     Self-consistent Calculation

      iter #   1 total cpu time :   293.0 secs   av.it.:   7.0
      thresh= 1.000E-02 alpha_mix =  0.700 |ddv_scf|^2 =  1.233E-07

      iter #   2 total cpu time :   294.9 secs   av.it.:  12.0
      thresh= 3.511E-05 alpha_mix =  0.700 |ddv_scf|^2 =  5.226E-09

      iter #   3 total cpu time :   296.8 secs   av.it.:  11.8
      thresh= 7.229E-06 alpha_mix =  0.700 |ddv_scf|^2 =  2.203E-11

      iter #   4 total cpu time :   299.0 secs   av.it.:  11.9
      thresh= 4.694E-07 alpha_mix =  0.700 |ddv_scf|^2 =  5.673E-13

      iter #   5 total cpu time :   301.0 secs   av.it.:  12.0
      thresh= 7.532E-08 alpha_mix =  0.700 |ddv_scf|^2 =  5.803E-15

     End of self-consistent calculation

     Convergence has been achieved 
 
     Number of q in the star =    6
     List of q in the star:
          1   0.000000000   0.433012702   0.000000000
          2   0.000000000  -0.433012702   0.000000000
          3   0.375000000   0.216506351   0.000000000
          4  -0.375000000  -0.216506351   0.000000000
          5   0.375000000  -0.216506351   0.000000000
          6  -0.375000000   0.216506351   0.000000000

     Diagonalizing the dynamical matrix

     q = (    0.000000000   0.433012702   0.000000000 ) 

 **************************************************************************
     freq (    1) =      10.041396 [THz] =     334.944911 [cm-1]
     freq (    2) =      17.602833 [THz] =     587.167308 [cm-1]
     freq (    3) =      22.276137 [THz] =     743.051957 [cm-1]
     freq (    4) =      33.520661 [THz] =    1118.128881 [cm-1]
     freq (    5) =      43.639143 [THz] =    1455.645118 [cm-1]
     freq (    6) =      45.828253 [THz] =    1528.665982 [cm-1]
 **************************************************************************

     Mode symmetry, C_2v (mm2)  point group:

     freq (   1-   1) =        334.9  [cm-1]   --> B_2  D_4  S_4      
     freq (   2-   2) =        587.2  [cm-1]   --> B_1  D_3  S_3      
     freq (   3-   3) =        743.1  [cm-1]   --> B_2  D_4  S_4      
     freq (   4-   4) =       1118.1  [cm-1]   --> A_1  D_1  S_1      
     freq (   5-   5) =       1455.6  [cm-1]   --> B_1  D_3  S_3      
     freq (   6-   6) =       1528.7  [cm-1]   --> A_1  D_1  S_1      

     Calculation of q =    0.0000000  -0.5773503   0.0000000
     Message from routine divide_et_impera:
     suboptimal parallelization: some nodes have no k-points
 
     G-vector sticks info
     --------------------
     sticks:   dense  smooth     PW     G-vecs:    dense   smooth      PW
     Sum         583     583    211               115897   115897   24927
 
     Using Slab Decomposition
 

     Title: 
     default                                                                    


     bravais-lattice index     =            4
     lattice parameter (alat)  =       4.6270  a.u.
     unit-cell volume          =     857.8851 (a.u.)^3
     number of atoms/cell      =            2
     number of atomic types    =            1
     number of electrons       =         8.00
     number of Kohn-Sham states=            8
     kinetic-energy cutoff     =     100.0000  Ry
     charge density cutoff     =     400.0000  Ry
     Exchange-correlation= PW
                           (   1   4   0   0   0   0   0)

     celldm(1)=   4.627000  celldm(2)=   0.000000  celldm(3)=  10.000000
     celldm(4)=   0.000000  celldm(5)=   0.000000  celldm(6)=   0.000000

     crystal axes: (cart. coord. in units of alat)
               a(1) = (   1.000000   0.000000   0.000000 )  
               a(2) = (  -0.500000   0.866025   0.000000 )  
               a(3) = (   0.000000   0.000000  10.000000 )  

     reciprocal axes: (cart. coord. in units 2 pi/alat)
               b(1) = (  1.000000  0.577350  0.000000 )  
               b(2) = (  0.000000  1.154701  0.000000 )  
               b(3) = (  0.000000  0.000000  0.100000 )  


     PseudoPot. # 1 for C  read from file:
     ../pseudo/C.upf
     MD5 check sum: c9bd9c91d9c48f3c1b9c51e450525728
     Pseudo is Norm-conserving + core correction, Zval =  4.0
     Generated using ONCVPSP code by D. R. Hamann
     Using radial grid of 1234 points,  4 beta functions with: 
                l(1) =   0
                l(2) =   0
                l(3) =   1
                l(4) =   1

     atomic species   valence    mass     pseudopotential
        C              4.00    12.01070     C ( 1.00)

     24 Sym. Ops., with inversion, found



   Cartesian axes

     site n.     atom                  positions (alat units)
         1           C   tau(   1) = (   0.0000000   0.5773503   0.0000000  )
         2           C   tau(   2) = (   0.5000000   0.2886751   0.0000000  )

     number of k points=  1568  Methfessel-Paxton smearing, width (Ry)=  0.0050

     Number of k-points >= 100: set verbosity='high' to print them.

     Dense  grid:   115897 G-vectors     FFT dimensions: (  30,  30, 300)

     Estimated max dynamical RAM per process >      54.61 MB

     Estimated total dynamical RAM >      54.61 GB

     The potential is recalculated from file :
     ./_ph0/graphene.q_5/graphene.save/charge-density

     Starting wfcs are    8 atomic wfcs

     Band Structure Calculation
     Davidson diagonalization with overlap

     ethr =  1.25E-10,  avg # of iterations = 33.1

     total cpu time spent up to now is       24.1 secs

     End of band structure calculation

     Number of k-points >= 100: set verbosity='high' to print the bands.

     the Fermi energy is    -2.9206 ev

     Writing config to output data dir ./_ph0/graphene.q_5/graphene.save/

     default                                                                    

     bravais-lattice index     =            4
     lattice parameter (alat)  =       4.6270  a.u.
     unit-cell volume          =     857.8851 (a.u.)^3
     number of atoms/cell      =            2
     number of atomic types    =            1
     kinetic-energy cut-off    =     100.0000  Ry
     charge density cut-off    =     400.0000  Ry
     convergence threshold     =      1.0E-14
     beta                      =       0.7000
     number of iterations used =            4
     Exchange-correlation= PW
                           (   1   4   0   0   0   0   0)


     celldm(1)=    4.62700  celldm(2)=    0.00000  celldm(3)=   10.00000
     celldm(4)=    0.00000  celldm(5)=    0.00000  celldm(6)=    0.00000

     crystal axes: (cart. coord. in units of alat)
               a(1) = (  1.0000  0.0000  0.0000 )  
               a(2) = ( -0.5000  0.8660  0.0000 )  
               a(3) = (  0.0000  0.0000 10.0000 )  

     reciprocal axes: (cart. coord. in units 2 pi/alat)
               b(1) = (  1.0000  0.5774  0.0000 )  
               b(2) = (  0.0000  1.1547  0.0000 )  
               b(3) = (  0.0000  0.0000  0.1000 )  


     Atoms inside the unit cell: 

     Cartesian axes

     site n.  atom      mass           positions (alat units)
        1     C   12.0107   tau(    1) = (    0.00000    0.57735    0.00000  )
        2     C   12.0107   tau(    2) = (    0.50000    0.28868    0.00000  )

     Computing dynamical matrix for 
                    q = (   0.0000000  -0.5773503   0.0000000 )
 
      9 Sym.Ops. (with q -> -q+G )


     G cutoff =  216.9198  ( 115897 G-vectors)     FFT grid: ( 30, 30,300)

     number of k points=  1568  Methfessel-Paxton smearing, width (Ry)=  0.0050

     PseudoPot. # 1 for C  read from file:
     ../pseudo/C.upf
     MD5 check sum: c9bd9c91d9c48f3c1b9c51e450525728
     Pseudo is Norm-conserving + core correction, Zval =  4.0
     Generated using ONCVPSP code by D. R. Hamann
     Using radial grid of 1234 points,  4 beta functions with: 
                l(1) =   0
                l(2) =   0
                l(3) =   1
                l(4) =   1

     Mode symmetry, D_2h (mmm)  point group:


     Atomic displacements:
     There are    6 irreducible representations

     Representation     1      1 modes -  To be done

     Representation     2      1 modes -  To be done

     Representation     3      1 modes -  To be done

     Representation     4      1 modes -  To be done

     Representation     5      1 modes -  To be done

     Representation     6      1 modes -  To be done



     Alpha used in Ewald sum =   2.8000
     PHONON       :   3m59.33s CPU   5m10.62s WALL



     Representation #   1 mode #   1

     Self-consistent Calculation

      iter #   1 total cpu time :   311.2 secs   av.it.:   7.0
      thresh= 1.000E-02 alpha_mix =  0.700 |ddv_scf|^2 =  1.429E-06

      iter #   2 total cpu time :   312.5 secs   av.it.:  12.2
      thresh= 1.195E-04 alpha_mix =  0.700 |ddv_scf|^2 =  1.273E-06

      iter #   3 total cpu time :   314.1 secs   av.it.:  11.5
      thresh= 1.128E-04 alpha_mix =  0.700 |ddv_scf|^2 =  4.599E-09

      iter #   4 total cpu time :   315.5 secs   av.it.:  11.6
      thresh= 6.781E-06 alpha_mix =  0.700 |ddv_scf|^2 =  5.370E-12

      iter #   5 total cpu time :   317.0 secs   av.it.:  12.0
      thresh= 2.317E-07 alpha_mix =  0.700 |ddv_scf|^2 =  3.210E-14

      iter #   6 total cpu time :   318.6 secs   av.it.:  11.5
      thresh= 1.792E-08 alpha_mix =  0.700 |ddv_scf|^2 =  1.353E-15

     End of self-consistent calculation

     Convergence has been achieved 


     Representation #   2 mode #   2

     Self-consistent Calculation

      iter #   1 total cpu time :   320.0 secs   av.it.:   5.9
      thresh= 1.000E-02 alpha_mix =  0.700 |ddv_scf|^2 =  9.883E-10

      iter #   2 total cpu time :   321.4 secs   av.it.:  11.8
      thresh= 3.144E-06 alpha_mix =  0.700 |ddv_scf|^2 =  7.479E-11

      iter #   3 total cpu time :   322.9 secs   av.it.:  11.7
      thresh= 8.648E-07 alpha_mix =  0.700 |ddv_scf|^2 =  8.063E-14

      iter #   4 total cpu time :   324.3 secs   av.it.:  11.7
      thresh= 2.840E-08 alpha_mix =  0.700 |ddv_scf|^2 =  3.785E-16

     End of self-consistent calculation

     Convergence has been achieved 


     Representation #   3 mode #   3

     Self-consistent Calculation

      iter #   1 total cpu time :   325.8 secs   av.it.:   6.8
      thresh= 1.000E-02 alpha_mix =  0.700 |ddv_scf|^2 =  1.041E-07

      iter #   2 total cpu time :   327.3 secs   av.it.:  12.0
      thresh= 3.226E-05 alpha_mix =  0.700 |ddv_scf|^2 =  1.917E-09

      iter #   3 total cpu time :   328.7 secs   av.it.:  12.0
      thresh= 4.378E-06 alpha_mix =  0.700 |ddv_scf|^2 =  1.867E-11

      iter #   4 total cpu time :   330.5 secs   av.it.:  11.9
      thresh= 4.321E-07 alpha_mix =  0.700 |ddv_scf|^2 =  4.655E-14

      iter #   5 total cpu time :   332.0 secs   av.it.:  11.6
      thresh= 2.158E-08 alpha_mix =  0.700 |ddv_scf|^2 =  4.897E-16

     End of self-consistent calculation

     Convergence has been achieved 


     Representation #   4 mode #   4

     Self-consistent Calculation

      iter #   1 total cpu time :   333.6 secs   av.it.:   6.6
      thresh= 1.000E-02 alpha_mix =  0.700 |ddv_scf|^2 =  3.121E-08

      iter #   2 total cpu time :   335.2 secs   av.it.:  12.0
      thresh= 1.767E-05 alpha_mix =  0.700 |ddv_scf|^2 =  9.198E-11

      iter #   3 total cpu time :   336.7 secs   av.it.:  11.5
      thresh= 9.591E-07 alpha_mix =  0.700 |ddv_scf|^2 =  7.819E-12

      iter #   4 total cpu time :   338.4 secs   av.it.:  11.9
      thresh= 2.796E-07 alpha_mix =  0.700 |ddv_scf|^2 =  2.275E-14

      iter #   5 total cpu time :   339.8 secs   av.it.:  11.7
      thresh= 1.508E-08 alpha_mix =  0.700 |ddv_scf|^2 =  1.060E-16

     End of self-consistent calculation

     Convergence has been achieved 


     Representation #   5 mode #   5

     Self-consistent Calculation

      iter #   1 total cpu time :   341.3 secs   av.it.:   6.9
      thresh= 1.000E-02 alpha_mix =  0.700 |ddv_scf|^2 =  7.156E-07

      iter #   2 total cpu time :   342.5 secs   av.it.:  12.0
      thresh= 8.459E-05 alpha_mix =  0.700 |ddv_scf|^2 =  1.110E-06

      iter #   3 total cpu time :   344.1 secs   av.it.:  11.2
      thresh= 1.053E-04 alpha_mix =  0.700 |ddv_scf|^2 =  2.319E-10

      iter #   4 total cpu time :   345.7 secs   av.it.:  11.6
      thresh= 1.523E-06 alpha_mix =  0.700 |ddv_scf|^2 =  9.089E-13

      iter #   5 total cpu time :   347.4 secs   av.it.:  12.0
      thresh= 9.534E-08 alpha_mix =  0.700 |ddv_scf|^2 =  3.619E-14

      iter #   6 total cpu time :   349.1 secs   av.it.:  11.6
      thresh= 1.902E-08 alpha_mix =  0.700 |ddv_scf|^2 =  7.404E-17

     End of self-consistent calculation

     Convergence has been achieved 


     Representation #   6 mode #   6

     Self-consistent Calculation

      iter #   1 total cpu time :   350.5 secs   av.it.:   6.9
      thresh= 1.000E-02 alpha_mix =  0.700 |ddv_scf|^2 =  8.657E-08

      iter #   2 total cpu time :   351.9 secs   av.it.:  11.9
      thresh= 2.942E-05 alpha_mix =  0.700 |ddv_scf|^2 =  6.428E-10

      iter #   3 total cpu time :   353.8 secs   av.it.:  12.1
      thresh= 2.535E-06 alpha_mix =  0.700 |ddv_scf|^2 =  1.129E-11

      iter #   4 total cpu time :   355.4 secs   av.it.:  11.9
      thresh= 3.359E-07 alpha_mix =  0.700 |ddv_scf|^2 =  1.193E-14

      iter #   5 total cpu time :   356.9 secs   av.it.:  12.0
      thresh= 1.092E-08 alpha_mix =  0.700 |ddv_scf|^2 =  6.169E-17

     End of self-consistent calculation

     Convergence has been achieved 
 
     Number of q in the star =    3
     List of q in the star:
          1   0.000000000  -0.577350269   0.000000000
          2   0.500000000   0.288675135   0.000000000
          3  -0.500000000   0.288675135   0.000000000

     Diagonalizing the dynamical matrix

     q = (    0.000000000  -0.577350269   0.000000000 ) 

 **************************************************************************
     freq (    1) =      14.242448 [THz] =     475.076929 [cm-1]
     freq (    2) =      18.766350 [THz] =     625.978063 [cm-1]
     freq (    3) =      19.151382 [THz] =     638.821341 [cm-1]
     freq (    4) =      40.438453 [THz] =    1348.881607 [cm-1]
     freq (    5) =      41.214218 [THz] =    1374.758326 [cm-1]
     freq (    6) =      43.051880 [THz] =    1436.056147 [cm-1]
 **************************************************************************

     Mode symmetry, D_2h (mmm)  point group:

     freq (   1-   1) =        475.1  [cm-1]   --> B_3g               
     freq (   2-   2) =        626.0  [cm-1]   --> B_1g               
     freq (   3-   3) =        638.8  [cm-1]   --> B_1u               
     freq (   4-   4) =       1348.9  [cm-1]   --> B_2u               
     freq (   5-   5) =       1374.8  [cm-1]   --> A_g                
     freq (   6-   6) =       1436.1  [cm-1]   --> B_3u               

     Calculation of q =    0.1250000   0.2165064   0.0000000
 
     G-vector sticks info
     --------------------
     sticks:   dense  smooth     PW     G-vecs:    dense   smooth      PW
     Sum         583     583    199               115897   115897   23025
 
     Using Slab Decomposition
 

     Title: 
     default                                                                    


     bravais-lattice index     =            4
     lattice parameter (alat)  =       4.6270  a.u.
     unit-cell volume          =     857.8851 (a.u.)^3
     number of atoms/cell      =            2
     number of atomic types    =            1
     number of electrons       =         8.00
     number of Kohn-Sham states=            8
     kinetic-energy cutoff     =     100.0000  Ry
     charge density cutoff     =     400.0000  Ry
     Exchange-correlation= PW
                           (   1   4   0   0   0   0   0)

     celldm(1)=   4.627000  celldm(2)=   0.000000  celldm(3)=  10.000000
     celldm(4)=   0.000000  celldm(5)=   0.000000  celldm(6)=   0.000000

     crystal axes: (cart. coord. in units of alat)
               a(1) = (   1.000000   0.000000   0.000000 )  
               a(2) = (  -0.500000   0.866025   0.000000 )  
               a(3) = (   0.000000   0.000000  10.000000 )  

     reciprocal axes: (cart. coord. in units 2 pi/alat)
               b(1) = (  1.000000  0.577350  0.000000 )  
               b(2) = (  0.000000  1.154701  0.000000 )  
               b(3) = (  0.000000  0.000000  0.100000 )  


     PseudoPot. # 1 for C  read from file:
     ../pseudo/C.upf
     MD5 check sum: c9bd9c91d9c48f3c1b9c51e450525728
     Pseudo is Norm-conserving + core correction, Zval =  4.0
     Generated using ONCVPSP code by D. R. Hamann
     Using radial grid of 1234 points,  4 beta functions with: 
                l(1) =   0
                l(2) =   0
                l(3) =   1
                l(4) =   1

     atomic species   valence    mass     pseudopotential
        C              4.00    12.01070     C ( 1.00)

     24 Sym. Ops., with inversion, found



   Cartesian axes

     site n.     atom                  positions (alat units)
         1           C   tau(   1) = (   0.0000000   0.5773503   0.0000000  )
         2           C   tau(   2) = (   0.5000000   0.2886751   0.0000000  )

     number of k points=  3104  Methfessel-Paxton smearing, width (Ry)=  0.0050

     Number of k-points >= 100: set verbosity='high' to print them.

     Dense  grid:   115897 G-vectors     FFT dimensions: (  30,  30, 300)

     Estimated max dynamical RAM per process >      54.60 MB

     Estimated total dynamical RAM >      54.60 GB

     The potential is recalculated from file :
     ./_ph0/graphene.q_6/graphene.save/charge-density

     Starting wfcs are    8 atomic wfcs

     Band Structure Calculation
     Davidson diagonalization with overlap

     ethr =  1.25E-10,  avg # of iterations = 33.1

     total cpu time spent up to now is       30.8 secs

     End of band structure calculation

     Number of k-points >= 100: set verbosity='high' to print the bands.

     the Fermi energy is    -2.9206 ev

     Writing config to output data dir ./_ph0/graphene.q_6/graphene.save/

     default                                                                    

     bravais-lattice index     =            4
     lattice parameter (alat)  =       4.6270  a.u.
     unit-cell volume          =     857.8851 (a.u.)^3
     number of atoms/cell      =            2
     number of atomic types    =            1
     kinetic-energy cut-off    =     100.0000  Ry
     charge density cut-off    =     400.0000  Ry
     convergence threshold     =      1.0E-14
     beta                      =       0.7000
     number of iterations used =            4
     Exchange-correlation= PW
                           (   1   4   0   0   0   0   0)


     celldm(1)=    4.62700  celldm(2)=    0.00000  celldm(3)=   10.00000
     celldm(4)=    0.00000  celldm(5)=    0.00000  celldm(6)=    0.00000

     crystal axes: (cart. coord. in units of alat)
               a(1) = (  1.0000  0.0000  0.0000 )  
               a(2) = ( -0.5000  0.8660  0.0000 )  
               a(3) = (  0.0000  0.0000 10.0000 )  

     reciprocal axes: (cart. coord. in units 2 pi/alat)
               b(1) = (  1.0000  0.5774  0.0000 )  
               b(2) = (  0.0000  1.1547  0.0000 )  
               b(3) = (  0.0000  0.0000  0.1000 )  


     Atoms inside the unit cell: 

     Cartesian axes

     site n.  atom      mass           positions (alat units)
        1     C   12.0107   tau(    1) = (    0.00000    0.57735    0.00000  )
        2     C   12.0107   tau(    2) = (    0.50000    0.28868    0.00000  )

     Computing dynamical matrix for 
                    q = (   0.1250000   0.2165064   0.0000000 )
 
      4 Sym.Ops. (no q -> -q+G )


     G cutoff =  216.9198  ( 115897 G-vectors)     FFT grid: ( 30, 30,300)

     number of k points=  3104  Methfessel-Paxton smearing, width (Ry)=  0.0050

     PseudoPot. # 1 for C  read from file:
     ../pseudo/C.upf
     MD5 check sum: c9bd9c91d9c48f3c1b9c51e450525728
     Pseudo is Norm-conserving + core correction, Zval =  4.0
     Generated using ONCVPSP code by D. R. Hamann
     Using radial grid of 1234 points,  4 beta functions with: 
                l(1) =   0
                l(2) =   0
                l(3) =   1
                l(4) =   1

     Mode symmetry, C_2v (mm2)  point group:


     Atomic displacements:
     There are    6 irreducible representations

     Representation     1      1 modes -  To be done

     Representation     2      1 modes -  To be done

     Representation     3      1 modes -  To be done

     Representation     4      1 modes -  To be done

     Representation     5      1 modes -  To be done

     Representation     6      1 modes -  To be done



     Alpha used in Ewald sum =   2.8000
     PHONON       :   4m41.44s CPU   6m 9.94s WALL



     Representation #   1 mode #   1

     Self-consistent Calculation

      iter #   1 total cpu time :   370.9 secs   av.it.:   7.2
      thresh= 1.000E-02 alpha_mix =  0.700 |ddv_scf|^2 =  6.007E-06

      iter #   2 total cpu time :   372.8 secs   av.it.:  11.4
      thresh= 2.451E-04 alpha_mix =  0.700 |ddv_scf|^2 =  2.765E-05

      iter #   3 total cpu time :   375.0 secs   av.it.:   9.9
      thresh= 5.259E-04 alpha_mix =  0.700 |ddv_scf|^2 =  6.210E-10

      iter #   4 total cpu time :   377.1 secs   av.it.:  12.0
      thresh= 2.492E-06 alpha_mix =  0.700 |ddv_scf|^2 =  1.662E-10

      iter #   5 total cpu time :   379.4 secs   av.it.:  10.7
      thresh= 1.289E-06 alpha_mix =  0.700 |ddv_scf|^2 =  3.764E-13

      iter #   6 total cpu time :   381.3 secs   av.it.:  12.0
      thresh= 6.135E-08 alpha_mix =  0.700 |ddv_scf|^2 =  2.786E-15

     End of self-consistent calculation

     Convergence has been achieved 


     Representation #   2 mode #   2

     Self-consistent Calculation

      iter #   1 total cpu time :   383.2 secs   av.it.:   7.1
      thresh= 1.000E-02 alpha_mix =  0.700 |ddv_scf|^2 =  8.036E-06

      iter #   2 total cpu time :   385.0 secs   av.it.:  11.3
      thresh= 2.835E-04 alpha_mix =  0.700 |ddv_scf|^2 =  3.738E-05

      iter #   3 total cpu time :   387.0 secs   av.it.:   9.9
      thresh= 6.114E-04 alpha_mix =  0.700 |ddv_scf|^2 =  2.320E-10

      iter #   4 total cpu time :   389.2 secs   av.it.:  12.3
      thresh= 1.523E-06 alpha_mix =  0.700 |ddv_scf|^2 =  4.523E-11

      iter #   5 total cpu time :   391.4 secs   av.it.:  11.1
      thresh= 6.725E-07 alpha_mix =  0.700 |ddv_scf|^2 =  4.635E-13

      iter #   6 total cpu time :   393.4 secs   av.it.:  11.7
      thresh= 6.808E-08 alpha_mix =  0.700 |ddv_scf|^2 =  8.099E-15

     End of self-consistent calculation

     Convergence has been achieved 


     Representation #   3 mode #   3

     Self-consistent Calculation

      iter #   1 total cpu time :   395.1 secs   av.it.:   6.0
      thresh= 1.000E-02 alpha_mix =  0.700 |ddv_scf|^2 =  5.017E-09

      iter #   2 total cpu time :   396.7 secs   av.it.:  11.7
      thresh= 7.083E-06 alpha_mix =  0.700 |ddv_scf|^2 =  1.014E-10

      iter #   3 total cpu time :   398.8 secs   av.it.:  11.3
      thresh= 1.007E-06 alpha_mix =  0.700 |ddv_scf|^2 =  3.596E-12

      iter #   4 total cpu time :   400.7 secs   av.it.:  11.3
      thresh= 1.896E-07 alpha_mix =  0.700 |ddv_scf|^2 =  7.222E-15

     End of self-consistent calculation

     Convergence has been achieved 


     Representation #   4 mode #   4

     Self-consistent Calculation

      iter #   1 total cpu time :   402.4 secs   av.it.:   6.9
      thresh= 1.000E-02 alpha_mix =  0.700 |ddv_scf|^2 =  7.774E-08

      iter #   2 total cpu time :   404.3 secs   av.it.:  12.3
      thresh= 2.788E-05 alpha_mix =  0.700 |ddv_scf|^2 =  2.981E-08

      iter #   3 total cpu time :   406.7 secs   av.it.:  11.8
      thresh= 1.727E-05 alpha_mix =  0.700 |ddv_scf|^2 =  1.013E-09

      iter #   4 total cpu time :   408.9 secs   av.it.:  11.8
      thresh= 3.183E-06 alpha_mix =  0.700 |ddv_scf|^2 =  2.303E-12

      iter #   5 total cpu time :   411.0 secs   av.it.:  12.3
      thresh= 1.517E-07 alpha_mix =  0.700 |ddv_scf|^2 =  9.502E-15

     End of self-consistent calculation

     Convergence has been achieved 


     Representation #   5 mode #   5

     Self-consistent Calculation

      iter #   1 total cpu time :   412.8 secs   av.it.:   6.9
      thresh= 1.000E-02 alpha_mix =  0.700 |ddv_scf|^2 =  3.593E-08

      iter #   2 total cpu time :   414.8 secs   av.it.:  12.4
      thresh= 1.896E-05 alpha_mix =  0.700 |ddv_scf|^2 =  1.239E-08

      iter #   3 total cpu time :   416.8 secs   av.it.:  11.9
      thresh= 1.113E-05 alpha_mix =  0.700 |ddv_scf|^2 =  5.909E-10

      iter #   4 total cpu time :   419.0 secs   av.it.:  11.9
      thresh= 2.431E-06 alpha_mix =  0.700 |ddv_scf|^2 =  2.064E-12

      iter #   5 total cpu time :   421.2 secs   av.it.:  12.3
      thresh= 1.437E-07 alpha_mix =  0.700 |ddv_scf|^2 =  7.342E-15

     End of self-consistent calculation

     Convergence has been achieved 


     Representation #   6 mode #   6

     Self-consistent Calculation

      iter #   1 total cpu time :   423.2 secs   av.it.:   7.0
      thresh= 1.000E-02 alpha_mix =  0.700 |ddv_scf|^2 =  1.354E-06

      iter #   2 total cpu time :   425.0 secs   av.it.:  11.4
      thresh= 1.164E-04 alpha_mix =  0.700 |ddv_scf|^2 =  3.033E-07

      iter #   3 total cpu time :   427.1 secs   av.it.:  11.0
      thresh= 5.508E-05 alpha_mix =  0.700 |ddv_scf|^2 =  2.358E-11

      iter #   4 total cpu time :   429.1 secs   av.it.:  11.5
      thresh= 4.856E-07 alpha_mix =  0.700 |ddv_scf|^2 =  1.422E-12

      iter #   5 total cpu time :   431.3 secs   av.it.:  10.9
      thresh= 1.193E-07 alpha_mix =  0.700 |ddv_scf|^2 =  3.885E-14

      iter #   6 total cpu time :   433.2 secs   av.it.:  11.0
      thresh= 1.971E-08 alpha_mix =  0.700 |ddv_scf|^2 =  1.360E-17

     End of self-consistent calculation

     Convergence has been achieved 
 
     Number of q in the star =    6
     List of q in the star:
          1   0.125000000   0.216506351   0.000000000
          2  -0.125000000  -0.216506351   0.000000000
          3   0.125000000  -0.216506351   0.000000000
          4   0.250000000  -0.000000000   0.000000000
          5  -0.250000000   0.000000000   0.000000000
          6  -0.125000000   0.216506351   0.000000000

     Diagonalizing the dynamical matrix

     q = (    0.125000000   0.216506351   0.000000000 ) 

 **************************************************************************
     freq (    1) =       3.508403 [THz] =     117.027739 [cm-1]
     freq (    2) =      13.846866 [THz] =     461.881734 [cm-1]
     freq (    3) =      20.344284 [THz] =     678.612277 [cm-1]
     freq (    4) =      25.588235 [THz] =     853.531650 [cm-1]
     freq (    5) =      45.525415 [THz] =    1518.564400 [cm-1]
     freq (    6) =      48.833723 [THz] =    1628.917672 [cm-1]
 **************************************************************************

     Mode symmetry, C_2v (mm2)  point group:

     freq (   1-   1) =        117.0  [cm-1]   --> B_2  D_4  S_4      
     freq (   2-   2) =        461.9  [cm-1]   --> B_1  D_3  S_3      
     freq (   3-   3) =        678.6  [cm-1]   --> A_1  D_1  S_1      
     freq (   4-   4) =        853.5  [cm-1]   --> A_2  D_2  S_2      
     freq (   5-   5) =       1518.6  [cm-1]   --> A_1  D_1  S_1      
     freq (   6-   6) =       1628.9  [cm-1]   --> B_1  D_3  S_3      

     Calculation of q =    0.1250000   0.3608439   0.0000000
 
     G-vector sticks info
     --------------------
     sticks:   dense  smooth     PW     G-vecs:    dense   smooth      PW
     Sum         583     583    199               115897   115897   23893
 
     Using Slab Decomposition
 

     Title: 
     default                                                                    


     bravais-lattice index     =            4
     lattice parameter (alat)  =       4.6270  a.u.
     unit-cell volume          =     857.8851 (a.u.)^3
     number of atoms/cell      =            2
     number of atomic types    =            1
     number of electrons       =         8.00
     number of Kohn-Sham states=            8
     kinetic-energy cutoff     =     100.0000  Ry
     charge density cutoff     =     400.0000  Ry
     Exchange-correlation= PW
                           (   1   4   0   0   0   0   0)

     celldm(1)=   4.627000  celldm(2)=   0.000000  celldm(3)=  10.000000
     celldm(4)=   0.000000  celldm(5)=   0.000000  celldm(6)=   0.000000

     crystal axes: (cart. coord. in units of alat)
               a(1) = (   1.000000   0.000000   0.000000 )  
               a(2) = (  -0.500000   0.866025   0.000000 )  
               a(3) = (   0.000000   0.000000  10.000000 )  

     reciprocal axes: (cart. coord. in units 2 pi/alat)
               b(1) = (  1.000000  0.577350  0.000000 )  
               b(2) = (  0.000000  1.154701  0.000000 )  
               b(3) = (  0.000000  0.000000  0.100000 )  


     PseudoPot. # 1 for C  read from file:
     ../pseudo/C.upf
     MD5 check sum: c9bd9c91d9c48f3c1b9c51e450525728
     Pseudo is Norm-conserving + core correction, Zval =  4.0
     Generated using ONCVPSP code by D. R. Hamann
     Using radial grid of 1234 points,  4 beta functions with: 
                l(1) =   0
                l(2) =   0
                l(3) =   1
                l(4) =   1

     atomic species   valence    mass     pseudopotential
        C              4.00    12.01070     C ( 1.00)

     24 Sym. Ops., with inversion, found



   Cartesian axes

     site n.     atom                  positions (alat units)
         1           C   tau(   1) = (   0.0000000   0.5773503   0.0000000  )
         2           C   tau(   2) = (   0.5000000   0.2886751   0.0000000  )

     number of k points=  6144  Methfessel-Paxton smearing, width (Ry)=  0.0050

     Number of k-points >= 100: set verbosity='high' to print them.

     Dense  grid:   115897 G-vectors     FFT dimensions: (  30,  30, 300)

     Estimated max dynamical RAM per process >      54.61 MB

     Estimated total dynamical RAM >      54.61 GB

     The potential is recalculated from file :
     ./_ph0/graphene.q_7/graphene.save/charge-density

     Starting wfcs are    8 atomic wfcs

     Band Structure Calculation
     Davidson diagonalization with overlap

     ethr =  1.25E-10,  avg # of iterations = 33.2

     total cpu time spent up to now is       41.4 secs

     End of band structure calculation

     Number of k-points >= 100: set verbosity='high' to print the bands.

     the Fermi energy is    -2.9206 ev

     Writing config to output data dir ./_ph0/graphene.q_7/graphene.save/

     default                                                                    

     bravais-lattice index     =            4
     lattice parameter (alat)  =       4.6270  a.u.
     unit-cell volume          =     857.8851 (a.u.)^3
     number of atoms/cell      =            2
     number of atomic types    =            1
     kinetic-energy cut-off    =     100.0000  Ry
     charge density cut-off    =     400.0000  Ry
     convergence threshold     =      1.0E-14
     beta                      =       0.7000
     number of iterations used =            4
     Exchange-correlation= PW
                           (   1   4   0   0   0   0   0)


     celldm(1)=    4.62700  celldm(2)=    0.00000  celldm(3)=   10.00000
     celldm(4)=    0.00000  celldm(5)=    0.00000  celldm(6)=    0.00000

     crystal axes: (cart. coord. in units of alat)
[...]
      thresh= 5.574E-06 alpha_mix =  0.700 |ddv_scf|^2 =  1.778E-11

      iter #   4 total cpu time :   732.3 secs   av.it.:  11.9
      thresh= 4.216E-07 alpha_mix =  0.700 |ddv_scf|^2 =  7.692E-14

      iter #   5 total cpu time :   734.2 secs   av.it.:  11.6
      thresh= 2.774E-08 alpha_mix =  0.700 |ddv_scf|^2 =  7.668E-16

     End of self-consistent calculation

     Convergence has been achieved 
 
     Number of q in the star =    6
     List of q in the star:
          1   0.250000000   0.433012702   0.000000000
          2  -0.250000000  -0.433012702   0.000000000
          3   0.250000000  -0.433012702   0.000000000
          4   0.500000000  -0.000000000   0.000000000
          5  -0.500000000   0.000000000   0.000000000
          6  -0.250000000   0.433012702   0.000000000

     Diagonalizing the dynamical matrix

     q = (    0.250000000   0.433012702   0.000000000 ) 

 **************************************************************************
     freq (    1) =      11.530387 [THz] =     384.612296 [cm-1]
     freq (    2) =      20.592394 [THz] =     686.888322 [cm-1]
     freq (    3) =      25.558943 [THz] =     852.554568 [cm-1]
     freq (    4) =      33.016946 [THz] =    1101.326787 [cm-1]
     freq (    5) =      42.149794 [THz] =    1405.965803 [cm-1]
     freq (    6) =      43.164136 [THz] =    1439.800586 [cm-1]
 **************************************************************************

     Mode symmetry, C_2v (mm2)  point group:

     freq (   1-   1) =        384.6  [cm-1]   --> B_2  D_4  S_4      
     freq (   2-   2) =        686.9  [cm-1]   --> A_2  D_2  S_2      
     freq (   3-   3) =        852.6  [cm-1]   --> B_1  D_3  S_3      
     freq (   4-   4) =       1101.3  [cm-1]   --> A_1  D_1  S_1      
     freq (   5-   5) =       1406.0  [cm-1]   --> A_1  D_1  S_1      
     freq (   6-   6) =       1439.8  [cm-1]   --> B_1  D_3  S_3      

     Calculation of q =    0.2500000   0.5773503   0.0000000
 
     G-vector sticks info
     --------------------
     sticks:   dense  smooth     PW     G-vecs:    dense   smooth      PW
     Sum         583     583    211               115897   115897   25961
 
     Using Slab Decomposition
 

     Title: 
     default                                                                    


     bravais-lattice index     =            4
     lattice parameter (alat)  =       4.6270  a.u.
     unit-cell volume          =     857.8851 (a.u.)^3
     number of atoms/cell      =            2
     number of atomic types    =            1
     number of electrons       =         8.00
     number of Kohn-Sham states=            8
     kinetic-energy cutoff     =     100.0000  Ry
     charge density cutoff     =     400.0000  Ry
     Exchange-correlation= PW
                           (   1   4   0   0   0   0   0)

     celldm(1)=   4.627000  celldm(2)=   0.000000  celldm(3)=  10.000000
     celldm(4)=   0.000000  celldm(5)=   0.000000  celldm(6)=   0.000000

     crystal axes: (cart. coord. in units of alat)
               a(1) = (   1.000000   0.000000   0.000000 )  
               a(2) = (  -0.500000   0.866025   0.000000 )  
               a(3) = (   0.000000   0.000000  10.000000 )  

     reciprocal axes: (cart. coord. in units 2 pi/alat)
               b(1) = (  1.000000  0.577350  0.000000 )  
               b(2) = (  0.000000  1.154701  0.000000 )  
               b(3) = (  0.000000  0.000000  0.100000 )  


     PseudoPot. # 1 for C  read from file:
     ../pseudo/C.upf
     MD5 check sum: c9bd9c91d9c48f3c1b9c51e450525728
     Pseudo is Norm-conserving + core correction, Zval =  4.0
     Generated using ONCVPSP code by D. R. Hamann
     Using radial grid of 1234 points,  4 beta functions with: 
                l(1) =   0
                l(2) =   0
                l(3) =   1
                l(4) =   1

     atomic species   valence    mass     pseudopotential
        C              4.00    12.01070     C ( 1.00)

     24 Sym. Ops., with inversion, found



   Cartesian axes

     site n.     atom                  positions (alat units)
         1           C   tau(   1) = (   0.0000000   0.5773503   0.0000000  )
         2           C   tau(   2) = (   0.5000000   0.2886751   0.0000000  )

     number of k points=  3104  Methfessel-Paxton smearing, width (Ry)=  0.0050

     Number of k-points >= 100: set verbosity='high' to print them.

     Dense  grid:   115897 G-vectors     FFT dimensions: (  30,  30, 300)

     Estimated max dynamical RAM per process >      54.61 MB

     Estimated total dynamical RAM >      54.61 GB

     The potential is recalculated from file :
     ./_ph0/graphene.q_10/graphene.save/charge-density

     Starting wfcs are    8 atomic wfcs

     Band Structure Calculation
     Davidson diagonalization with overlap

     ethr =  1.25E-10,  avg # of iterations = 33.1

     total cpu time spent up to now is       65.7 secs

     End of band structure calculation

     Number of k-points >= 100: set verbosity='high' to print the bands.

     the Fermi energy is    -2.9206 ev

     Writing config to output data dir ./_ph0/graphene.q_10/graphene.save/

     default                                                                    

     bravais-lattice index     =            4
     lattice parameter (alat)  =       4.6270  a.u.
     unit-cell volume          =     857.8851 (a.u.)^3
     number of atoms/cell      =            2
     number of atomic types    =            1
     kinetic-energy cut-off    =     100.0000  Ry
     charge density cut-off    =     400.0000  Ry
     convergence threshold     =      1.0E-14
     beta                      =       0.7000
     number of iterations used =            4
     Exchange-correlation= PW
                           (   1   4   0   0   0   0   0)


     celldm(1)=    4.62700  celldm(2)=    0.00000  celldm(3)=   10.00000
     celldm(4)=    0.00000  celldm(5)=    0.00000  celldm(6)=    0.00000

     crystal axes: (cart. coord. in units of alat)
               a(1) = (  1.0000  0.0000  0.0000 )  
               a(2) = ( -0.5000  0.8660  0.0000 )  
               a(3) = (  0.0000  0.0000 10.0000 )  

     reciprocal axes: (cart. coord. in units 2 pi/alat)
               b(1) = (  1.0000  0.5774  0.0000 )  
               b(2) = (  0.0000  1.1547  0.0000 )  
               b(3) = (  0.0000  0.0000  0.1000 )  


     Atoms inside the unit cell: 

     Cartesian axes

     site n.  atom      mass           positions (alat units)
        1     C   12.0107   tau(    1) = (    0.00000    0.57735    0.00000  )
        2     C   12.0107   tau(    2) = (    0.50000    0.28868    0.00000  )

     Computing dynamical matrix for 
                    q = (   0.2500000   0.5773503   0.0000000 )
 
      4 Sym.Ops. (no q -> -q+G )


     G cutoff =  216.9198  ( 115897 G-vectors)     FFT grid: ( 30, 30,300)

     number of k points=  3104  Methfessel-Paxton smearing, width (Ry)=  0.0050

     PseudoPot. # 1 for C  read from file:
     ../pseudo/C.upf
     MD5 check sum: c9bd9c91d9c48f3c1b9c51e450525728
     Pseudo is Norm-conserving + core correction, Zval =  4.0
     Generated using ONCVPSP code by D. R. Hamann
     Using radial grid of 1234 points,  4 beta functions with: 
                l(1) =   0
                l(2) =   0
                l(3) =   1
                l(4) =   1

     Mode symmetry, C_2v (mm2)  point group:


     Atomic displacements:
     There are    6 irreducible representations

     Representation     1      1 modes -  To be done

     Representation     2      1 modes -  To be done

     Representation     3      1 modes -  To be done

     Representation     4      1 modes -  To be done

     Representation     5      1 modes -  To be done

     Representation     6      1 modes -  To be done



     Alpha used in Ewald sum =   2.8000
     PHONON       :   9m45.62s CPU  12m27.26s WALL



     Representation #   1 mode #   1

     Self-consistent Calculation

      iter #   1 total cpu time :   748.3 secs   av.it.:   7.1
      thresh= 1.000E-02 alpha_mix =  0.700 |ddv_scf|^2 =  8.188E-07

      iter #   2 total cpu time :   749.9 secs   av.it.:  12.2
      thresh= 9.049E-05 alpha_mix =  0.700 |ddv_scf|^2 =  5.301E-07

      iter #   3 total cpu time :   751.9 secs   av.it.:  11.7
      thresh= 7.281E-05 alpha_mix =  0.700 |ddv_scf|^2 =  1.121E-08

      iter #   4 total cpu time :   754.0 secs   av.it.:  11.7
      thresh= 1.059E-05 alpha_mix =  0.700 |ddv_scf|^2 =  1.979E-11

      iter #   5 total cpu time :   755.8 secs   av.it.:  12.0
      thresh= 4.449E-07 alpha_mix =  0.700 |ddv_scf|^2 =  3.180E-13

      iter #   6 total cpu time :   757.7 secs   av.it.:  12.0
      thresh= 5.639E-08 alpha_mix =  0.700 |ddv_scf|^2 =  1.102E-15

     End of self-consistent calculation

     Convergence has been achieved 


     Representation #   2 mode #   2

     Self-consistent Calculation

      iter #   1 total cpu time :   759.4 secs   av.it.:   7.0
      thresh= 1.000E-02 alpha_mix =  0.700 |ddv_scf|^2 =  3.446E-07

      iter #   2 total cpu time :   761.3 secs   av.it.:  12.4
      thresh= 5.871E-05 alpha_mix =  0.700 |ddv_scf|^2 =  2.031E-07

      iter #   3 total cpu time :   763.2 secs   av.it.:  11.8
      thresh= 4.507E-05 alpha_mix =  0.700 |ddv_scf|^2 =  8.866E-09

      iter #   4 total cpu time :   765.3 secs   av.it.:  11.6
      thresh= 9.416E-06 alpha_mix =  0.700 |ddv_scf|^2 =  4.820E-11

      iter #   5 total cpu time :   767.4 secs   av.it.:  12.0
      thresh= 6.943E-07 alpha_mix =  0.700 |ddv_scf|^2 =  4.601E-13

      iter #   6 total cpu time :   769.2 secs   av.it.:  12.2
      thresh= 6.783E-08 alpha_mix =  0.700 |ddv_scf|^2 =  6.301E-16

     End of self-consistent calculation

     Convergence has been achieved 


     Representation #   3 mode #   3

     Self-consistent Calculation

      iter #   1 total cpu time :   771.0 secs   av.it.:   6.6
      thresh= 1.000E-02 alpha_mix =  0.700 |ddv_scf|^2 =  6.661E-08

      iter #   2 total cpu time :   772.9 secs   av.it.:  12.0
      thresh= 2.581E-05 alpha_mix =  0.700 |ddv_scf|^2 =  5.693E-10

      iter #   3 total cpu time :   774.8 secs   av.it.:  12.0
      thresh= 2.386E-06 alpha_mix =  0.700 |ddv_scf|^2 =  1.396E-11

      iter #   4 total cpu time :   777.1 secs   av.it.:  11.9
      thresh= 3.736E-07 alpha_mix =  0.700 |ddv_scf|^2 =  3.491E-14

      iter #   5 total cpu time :   778.8 secs   av.it.:  11.7
      thresh= 1.868E-08 alpha_mix =  0.700 |ddv_scf|^2 =  1.356E-16

     End of self-consistent calculation

     Convergence has been achieved 


     Representation #   4 mode #   4

     Self-consistent Calculation

      iter #   1 total cpu time :   780.7 secs   av.it.:   6.7
      thresh= 1.000E-02 alpha_mix =  0.700 |ddv_scf|^2 =  3.667E-08

      iter #   2 total cpu time :   782.4 secs   av.it.:  12.0
      thresh= 1.915E-05 alpha_mix =  0.700 |ddv_scf|^2 =  1.303E-10

      iter #   3 total cpu time :   784.3 secs   av.it.:  11.7
      thresh= 1.142E-06 alpha_mix =  0.700 |ddv_scf|^2 =  9.636E-12

      iter #   4 total cpu time :   786.3 secs   av.it.:  11.9
      thresh= 3.104E-07 alpha_mix =  0.700 |ddv_scf|^2 =  2.762E-14

      iter #   5 total cpu time :   788.5 secs   av.it.:  11.8
      thresh= 1.662E-08 alpha_mix =  0.700 |ddv_scf|^2 =  8.469E-17

     End of self-consistent calculation

     Convergence has been achieved 


     Representation #   5 mode #   5

     Self-consistent Calculation

      iter #   1 total cpu time :   790.3 secs   av.it.:   6.9
      thresh= 1.000E-02 alpha_mix =  0.700 |ddv_scf|^2 =  2.802E-07

      iter #   2 total cpu time :   792.1 secs   av.it.:  12.2
      thresh= 5.293E-05 alpha_mix =  0.700 |ddv_scf|^2 =  3.809E-07

      iter #   3 total cpu time :   794.0 secs   av.it.:  11.3
      thresh= 6.172E-05 alpha_mix =  0.700 |ddv_scf|^2 =  2.431E-10

      iter #   4 total cpu time :   796.1 secs   av.it.:  11.8
      thresh= 1.559E-06 alpha_mix =  0.700 |ddv_scf|^2 =  1.123E-12

      iter #   5 total cpu time :   798.2 secs   av.it.:  12.0
      thresh= 1.060E-07 alpha_mix =  0.700 |ddv_scf|^2 =  6.538E-15

     End of self-consistent calculation

     Convergence has been achieved 


     Representation #   6 mode #   6

     Self-consistent Calculation

      iter #   1 total cpu time :   800.1 secs   av.it.:   7.0
      thresh= 1.000E-02 alpha_mix =  0.700 |ddv_scf|^2 =  4.384E-07

      iter #   2 total cpu time :   802.1 secs   av.it.:  12.2
      thresh= 6.621E-05 alpha_mix =  0.700 |ddv_scf|^2 =  5.976E-07

      iter #   3 total cpu time :   804.0 secs   av.it.:  11.3
      thresh= 7.731E-05 alpha_mix =  0.700 |ddv_scf|^2 =  3.491E-10

      iter #   4 total cpu time :   806.1 secs   av.it.:  11.7
      thresh= 1.868E-06 alpha_mix =  0.700 |ddv_scf|^2 =  1.139E-12

      iter #   5 total cpu time :   808.0 secs   av.it.:  12.1
      thresh= 1.067E-07 alpha_mix =  0.700 |ddv_scf|^2 =  9.997E-15

     End of self-consistent calculation

     Convergence has been achieved 
 
     Number of q in the star =    6
     List of q in the star:
          1   0.250000000   0.577350269   0.000000000
          2  -0.250000000  -0.577350269   0.000000000
          3   0.375000000   0.505181486   0.000000000
          4  -0.375000000  -0.505181486   0.000000000
          5   0.625000000  -0.072168784   0.000000000
          6  -0.625000000   0.072168784   0.000000000

     Diagonalizing the dynamical matrix

     q = (    0.250000000   0.577350269   0.000000000 ) 

 **************************************************************************
     freq (    1) =      14.806873 [THz] =     493.904122 [cm-1]
     freq (    2) =      17.572904 [THz] =     586.168979 [cm-1]
     freq (    3) =      28.023295 [THz] =     934.756490 [cm-1]
     freq (    4) =      37.209906 [THz] =    1241.188875 [cm-1]
     freq (    5) =      38.789107 [THz] =    1293.865348 [cm-1]
     freq (    6) =      41.403393 [THz] =    1381.068528 [cm-1]
 **************************************************************************

     Mode symmetry, C_2v (mm2)  point group:

     freq (   1-   1) =        493.9  [cm-1]   --> A_2  D_2  S_2      
     freq (   2-   2) =        586.2  [cm-1]   --> B_1  D_3  S_3      
     freq (   3-   3) =        934.8  [cm-1]   --> B_2  D_4  S_4      
     freq (   4-   4) =       1241.2  [cm-1]   --> B_2  D_4  S_4      
     freq (   5-   5) =       1293.9  [cm-1]   --> A_1  D_1  S_1      
     freq (   6-   6) =       1381.1  [cm-1]   --> A_1  D_1  S_1      
 
     init_run     :      1.48s CPU      1.70s WALL (       9 calls)
     electrons    :     61.70s CPU     62.08s WALL (       9 calls)

     Called by init_run:
     wfcinit      :      0.00s CPU      0.06s WALL (       9 calls)
     potinit      :      0.53s CPU      0.67s WALL (       9 calls)
     hinit0       :      0.53s CPU      0.54s WALL (       9 calls)

     Called by electrons:
     c_bands      :     61.69s CPU     62.05s WALL (       9 calls)
     v_of_rho     :      0.16s CPU      0.17s WALL (      10 calls)

     Called by c_bands:
     init_us_2    :      1.76s CPU      1.99s WALL (    1007 calls)
     init_us_2:cp :      1.75s CPU      1.98s WALL (    1007 calls)
     cegterg      :     43.84s CPU     44.07s WALL (      78 calls)

     Called by *egterg:
     cdiaghg      :      0.27s CPU      0.27s WALL (    1270 calls)
     h_psi        :    278.98s CPU    280.25s WALL (   10789 calls)
     g_psi        :      0.23s CPU      0.23s WALL (    1232 calls)

     Called by h_psi:
     h_psi:calbec :      7.20s CPU      7.25s WALL (   10789 calls)
     vloc_psi     :    262.92s CPU    264.06s WALL (   10789 calls)
     add_vuspsi   :      7.17s CPU      7.23s WALL (   10789 calls)

     General routines
     calbec       :     12.61s CPU     12.74s WALL (   20914 calls)
     fft          :      5.37s CPU      5.56s WALL (    1888 calls)
     ffts         :      1.22s CPU      1.22s WALL (     484 calls)
     fftw         :    238.51s CPU    239.46s WALL (   86928 calls)
     davcio       :      0.88s CPU      9.98s WALL (    5765 calls)
 
     Parallel routines
 
     PHONON       :  10m29.95s CPU  13m29.11s WALL

     INITIALIZATION: 
     phq_setup    :      0.30s CPU      0.39s WALL (      10 calls)
     phq_init     :     51.48s CPU     51.70s WALL (      10 calls)
 
     phq_init     :     51.48s CPU     51.70s WALL (      10 calls)
     set_drhoc    :     14.55s CPU     14.58s WALL (      30 calls)
     init_vloc    :      0.15s CPU      0.15s WALL (      10 calls)
     init_us_1    :      0.03s CPU      0.04s WALL (      10 calls)
     init_us_2    :      1.76s CPU      1.99s WALL (    1007 calls)
 
     DYNAMICAL MATRIX:
     dynmat0      :     41.84s CPU     42.01s WALL (      10 calls)
     phqscf       :    510.06s CPU    685.39s WALL (      10 calls)
     dynmatrix    :      2.49s CPU      3.12s WALL (      10 calls)
 
     phqscf       :    510.06s CPU    685.39s WALL (      10 calls)
     solve_linter :    506.47s CPU    677.43s WALL (      58 calls)
     drhodv       :      3.50s CPU      3.72s WALL (      58 calls)
 
     dynmat0      :     41.84s CPU     42.01s WALL (      10 calls)
     dynmat_us    :      7.61s CPU      7.64s WALL (      10 calls)
     d2ionq       :      0.18s CPU      0.19s WALL (      10 calls)
     dynmatcc     :      9.97s CPU     10.00s WALL (      10 calls)
 
     dynmat_us    :      7.61s CPU      7.64s WALL (      10 calls)
 
     phqscf       :    510.06s CPU    685.39s WALL (      10 calls)
     solve_linter :    506.47s CPU    677.43s WALL (      58 calls)
 
     solve_linter :    506.47s CPU    677.43s WALL (      58 calls)
     dvqpsi_us    :      7.18s CPU      7.38s WALL (     120 calls)
     sth_kernel   :    353.05s CPU    358.29s WALL (     331 calls)
     apply_dpot_b :     16.83s CPU     17.14s WALL (     577 calls)
     ortho        :      0.99s CPU      1.03s WALL (     697 calls)
     cgsolve      :    268.19s CPU    270.14s WALL (     697 calls)
     incdrhoscf   :     23.87s CPU     24.38s WALL (     697 calls)
     dv_of_drho   :      7.03s CPU      7.05s WALL (     339 calls)
     mix_pot      :      3.90s CPU     39.75s WALL (     331 calls)
     ef_shift     :      0.17s CPU      0.18s WALL (      18 calls)
     ef_shift_wfc :      0.01s CPU      0.01s WALL (       4 calls)
     localdos     :      1.36s CPU      1.39s WALL (       4 calls)
     psymdvscf    :     15.27s CPU     15.34s WALL (     331 calls)
 
     dvqpsi_us    :      7.18s CPU      7.38s WALL (     120 calls)
     dvqpsi_us_on :      0.42s CPU      0.43s WALL (     120 calls)
 
     cgsolve      :    268.19s CPU    270.14s WALL (     697 calls)
     ch_psi       :    258.83s CPU    260.24s WALL (    9441 calls)
 
     ch_psi       :    258.83s CPU    260.24s WALL (    9441 calls)
     h_psi        :    278.98s CPU    280.25s WALL (   10789 calls)
     last         :     15.32s CPU     15.44s WALL (    9441 calls)
 
     h_psi        :    278.98s CPU    280.25s WALL (   10789 calls)
     add_vuspsi   :      7.17s CPU      7.23s WALL (   10789 calls)
 
     incdrhoscf   :     23.87s CPU     24.38s WALL (     697 calls)
 
 
      General routines
     calbec       :     12.61s CPU     12.74s WALL (   20914 calls)
     fft          :      5.37s CPU      5.56s WALL (    1888 calls)
     ffts         :      1.22s CPU      1.22s WALL (     484 calls)
     fftw         :    238.51s CPU    239.46s WALL (   86928 calls)
     davcio       :      0.88s CPU      9.98s WALL (    5765 calls)
     write_rec    :      0.34s CPU    132.57s WALL (     389 calls)
 
 
     PHONON       :  10m29.95s CPU  13m29.11s WALL

 
   This run was terminated on:  17:32:10   9Jun2022            

=------------------------------------------------------------------------------=
   JOB DONE.
=------------------------------------------------------------------------------=
TACC:  Shutdown complete. Exiting. 
