TACC:  Starting up job 4473090 
TACC:  Starting parallel tasks... 

     Program PWSCF v.7.0 starts on  9Jun2022 at 16:41: 9 

     This program is part of the open-source Quantum ESPRESSO suite
     for quantum simulation of materials; please cite
         "P. Giannozzi et al., J. Phys.:Condens. Matter 21 395502 (2009);
         "P. Giannozzi et al., J. Phys.:Condens. Matter 29 465901 (2017);
         "P. Giannozzi et al., J. Chem. Phys. 152 154105 (2020);
          URL http://www.quantum-espresso.org", 
     in publications or presentations arising from this work. More details at
     http://www.quantum-espresso.org/quote

     Parallel version (MPI), running on   512 processors

     MPI processes distributed on    10 nodes
     K-points division:     npool     =     512
     180851 MiB available memory on the printing compute node when the environment starts
 
     Reading input from scf.in

     Current dimensions of program PWSCF are:
     Max number of different atomic species (ntypx) = 10
     Max number of k-points (npk) =  40000
     Max angular momentum in pseudopotentials (lmaxx) =  4
     Message from routine divide_et_impera:
     suboptimal parallelization: some nodes have no k-points

     Subspace diagonalization in iterative solution of the eigenvalue problem:
     a serial algorithm will be used

 
     G-vector sticks info
     --------------------
     sticks:   dense  smooth     PW     G-vecs:    dense   smooth      PW
     Sum         583     583    199               115897   115897   21065
 
     Using Slab Decomposition
 


     bravais-lattice index     =            4
     lattice parameter (alat)  =       4.6270  a.u.
     unit-cell volume          =     857.8851 (a.u.)^3
     number of atoms/cell      =            2
     number of atomic types    =            1
     number of electrons       =         8.00
     number of Kohn-Sham states=            8
     kinetic-energy cutoff     =     100.0000  Ry
     charge density cutoff     =     400.0000  Ry
     scf convergence threshold =      1.0E-12
     mixing beta               =       0.7000
     number of iterations used =            8  plain     mixing
     Exchange-correlation= SLA  PW   NOGX NOGC
                           (   1   4   0   0   0   0   0)

     celldm(1)=   4.627000  celldm(2)=   0.000000  celldm(3)=  10.000000
     celldm(4)=   0.000000  celldm(5)=   0.000000  celldm(6)=   0.000000

     crystal axes: (cart. coord. in units of alat)
               a(1) = (   1.000000   0.000000   0.000000 )  
               a(2) = (  -0.500000   0.866025   0.000000 )  
               a(3) = (   0.000000   0.000000  10.000000 )  

     reciprocal axes: (cart. coord. in units 2 pi/alat)
               b(1) = (  1.000000  0.577350  0.000000 )  
               b(2) = (  0.000000  1.154701  0.000000 )  
               b(3) = (  0.000000  0.000000  0.100000 )  


     PseudoPot. # 1 for C  read from file:
     ../pseudo/C.upf
     MD5 check sum: c9bd9c91d9c48f3c1b9c51e450525728
     Pseudo is Norm-conserving + core correction, Zval =  4.0
     Generated using ONCVPSP code by D. R. Hamann
     Using radial grid of 1234 points,  4 beta functions with: 
                l(1) =   0
                l(2) =   0
                l(3) =   1
                l(4) =   1

     atomic species   valence    mass     pseudopotential
        C              4.00    12.01100     C ( 1.00)

     24 Sym. Ops., with inversion, found


                                    s                        frac. trans.

      isym =  1     identity                                     

 cryst.   s( 1) = (     1          0          0      )
                  (     0          1          0      )
                  (     0          0          1      )

 cart.    s( 1) = (  1.0000000  0.0000000  0.0000000 )
                  (  0.0000000  1.0000000  0.0000000 )
                  (  0.0000000  0.0000000  1.0000000 )


      isym =  2     180 deg rotation - cart. axis [0,0,1]        

 cryst.   s( 2) = (    -1          0          0      )
                  (     0         -1          0      )
                  (     0          0          1      )

 cart.    s( 2) = ( -1.0000000  0.0000000  0.0000000 )
                  (  0.0000000 -1.0000000  0.0000000 )
                  (  0.0000000  0.0000000  1.0000000 )


      isym =  3     180 deg rotation - cart. axis [0,1,0]        

 cryst.   s( 3) = (    -1          0          0      )
                  (     1          1          0      )
                  (     0          0         -1      )

 cart.    s( 3) = ( -1.0000000  0.0000000  0.0000000 )
                  (  0.0000000  1.0000000  0.0000000 )
                  (  0.0000000  0.0000000 -1.0000000 )


      isym =  4     180 deg rotation - cart. axis [1,0,0]        

 cryst.   s( 4) = (     1          0          0      )
                  (    -1         -1          0      )
                  (     0          0         -1      )

 cart.    s( 4) = (  1.0000000  0.0000000  0.0000000 )
                  (  0.0000000 -1.0000000  0.0000000 )
                  (  0.0000000  0.0000000 -1.0000000 )


      isym =  5      60 deg rotation - cryst. axis [0,0,1]       

 cryst.   s( 5) = (     1          1          0      )
                  (    -1          0          0      )
                  (     0          0          1      )

 cart.    s( 5) = (  0.5000000 -0.8660254  0.0000000 )
                  (  0.8660254  0.5000000  0.0000000 )
                  (  0.0000000  0.0000000  1.0000000 )


      isym =  6      60 deg rotation - cryst. axis [0,0,-1]      

 cryst.   s( 6) = (     0         -1          0      )
                  (     1          1          0      )
                  (     0          0          1      )

 cart.    s( 6) = (  0.5000000  0.8660254  0.0000000 )
                  ( -0.8660254  0.5000000  0.0000000 )
                  (  0.0000000  0.0000000  1.0000000 )


      isym =  7     120 deg rotation - cryst. axis [0,0,1]       

 cryst.   s( 7) = (     0          1          0      )
                  (    -1         -1          0      )
                  (     0          0          1      )

 cart.    s( 7) = ( -0.5000000 -0.8660254  0.0000000 )
                  (  0.8660254 -0.5000000  0.0000000 )
                  (  0.0000000  0.0000000  1.0000000 )


      isym =  8     120 deg rotation - cryst. axis [0,0,-1]      

 cryst.   s( 8) = (    -1         -1          0      )
                  (     1          0          0      )
                  (     0          0          1      )

 cart.    s( 8) = ( -0.5000000  0.8660254  0.0000000 )
                  ( -0.8660254 -0.5000000  0.0000000 )
                  (  0.0000000  0.0000000  1.0000000 )


      isym =  9     180 deg rotation - cryst. axis [1,-1,0]      

 cryst.   s( 9) = (     0         -1          0      )
                  (    -1          0          0      )
                  (     0          0         -1      )

 cart.    s( 9) = (  0.5000000 -0.8660254  0.0000000 )
                  ( -0.8660254 -0.5000000  0.0000000 )
                  (  0.0000000  0.0000000 -1.0000000 )


      isym = 10     180 deg rotation - cryst. axis [2,1,0]       

 cryst.   s(10) = (     1          1          0      )
                  (     0         -1          0      )
                  (     0          0         -1      )

 cart.    s(10) = (  0.5000000  0.8660254  0.0000000 )
                  (  0.8660254 -0.5000000  0.0000000 )
                  (  0.0000000  0.0000000 -1.0000000 )


      isym = 11     180 deg rotation - cryst. axis [0,1,0]       

 cryst.   s(11) = (    -1         -1          0      )
                  (     0          1          0      )
                  (     0          0         -1      )

 cart.    s(11) = ( -0.5000000 -0.8660254  0.0000000 )
                  ( -0.8660254  0.5000000  0.0000000 )
                  (  0.0000000  0.0000000 -1.0000000 )


      isym = 12     180 deg rotation - cryst. axis [1,1,0]       

 cryst.   s(12) = (     0          1          0      )
                  (     1          0          0      )
                  (     0          0         -1      )

 cart.    s(12) = ( -0.5000000  0.8660254  0.0000000 )
                  (  0.8660254  0.5000000  0.0000000 )
                  (  0.0000000  0.0000000 -1.0000000 )


      isym = 13     inversion                                    

 cryst.   s(13) = (    -1          0          0      )
                  (     0         -1          0      )
                  (     0          0         -1      )

 cart.    s(13) = ( -1.0000000  0.0000000  0.0000000 )
                  (  0.0000000 -1.0000000  0.0000000 )
                  (  0.0000000  0.0000000 -1.0000000 )


      isym = 14     inv. 180 deg rotation - cart. axis [0,0,1]   

 cryst.   s(14) = (     1          0          0      )
                  (     0          1          0      )
                  (     0          0         -1      )

 cart.    s(14) = (  1.0000000  0.0000000  0.0000000 )
                  (  0.0000000  1.0000000  0.0000000 )
                  (  0.0000000  0.0000000 -1.0000000 )


      isym = 15     inv. 180 deg rotation - cart. axis [0,1,0]   

 cryst.   s(15) = (     1          0          0      )
                  (    -1         -1          0      )
                  (     0          0          1      )

 cart.    s(15) = (  1.0000000  0.0000000  0.0000000 )
                  (  0.0000000 -1.0000000  0.0000000 )
                  (  0.0000000  0.0000000  1.0000000 )


      isym = 16     inv. 180 deg rotation - cart. axis [1,0,0]   

 cryst.   s(16) = (    -1          0          0      )
                  (     1          1          0      )
                  (     0          0          1      )

 cart.    s(16) = ( -1.0000000  0.0000000  0.0000000 )
                  (  0.0000000  1.0000000  0.0000000 )
                  (  0.0000000  0.0000000  1.0000000 )


      isym = 17     inv.  60 deg rotation - cryst. axis [0,0,1]  

 cryst.   s(17) = (    -1         -1          0      )
                  (     1          0          0      )
                  (     0          0         -1      )

 cart.    s(17) = ( -0.5000000  0.8660254  0.0000000 )
                  ( -0.8660254 -0.5000000  0.0000000 )
                  (  0.0000000  0.0000000 -1.0000000 )


      isym = 18     inv.  60 deg rotation - cryst. axis [0,0,-1] 

 cryst.   s(18) = (     0          1          0      )
                  (    -1         -1          0      )
                  (     0          0         -1      )

 cart.    s(18) = ( -0.5000000 -0.8660254  0.0000000 )
                  (  0.8660254 -0.5000000  0.0000000 )
                  (  0.0000000  0.0000000 -1.0000000 )


      isym = 19     inv. 120 deg rotation - cryst. axis [0,0,1]  

 cryst.   s(19) = (     0         -1          0      )
                  (     1          1          0      )
                  (     0          0         -1      )

 cart.    s(19) = (  0.5000000  0.8660254  0.0000000 )
                  ( -0.8660254  0.5000000  0.0000000 )
                  (  0.0000000  0.0000000 -1.0000000 )


      isym = 20     inv. 120 deg rotation - cryst. axis [0,0,-1] 

 cryst.   s(20) = (     1          1          0      )
                  (    -1          0          0      )
                  (     0          0         -1      )

 cart.    s(20) = (  0.5000000 -0.8660254  0.0000000 )
                  (  0.8660254  0.5000000  0.0000000 )
                  (  0.0000000  0.0000000 -1.0000000 )


      isym = 21     inv. 180 deg rotation - cryst. axis [1,-1,0] 

 cryst.   s(21) = (     0          1          0      )
                  (     1          0          0      )
                  (     0          0          1      )

 cart.    s(21) = ( -0.5000000  0.8660254  0.0000000 )
                  (  0.8660254  0.5000000  0.0000000 )
                  (  0.0000000  0.0000000  1.0000000 )


      isym = 22     inv. 180 deg rotation - cryst. axis [2,1,0]  

 cryst.   s(22) = (    -1         -1          0      )
                  (     0          1          0      )
                  (     0          0          1      )

 cart.    s(22) = ( -0.5000000 -0.8660254  0.0000000 )
                  ( -0.8660254  0.5000000  0.0000000 )
                  (  0.0000000  0.0000000  1.0000000 )


      isym = 23     inv. 180 deg rotation - cryst. axis [0,1,0]  

 cryst.   s(23) = (     1          1          0      )
                  (     0         -1          0      )
                  (     0          0          1      )

 cart.    s(23) = (  0.5000000  0.8660254  0.0000000 )
                  (  0.8660254 -0.5000000  0.0000000 )
                  (  0.0000000  0.0000000  1.0000000 )


      isym = 24     inv. 180 deg rotation - cryst. axis [1,1,0]  

 cryst.   s(24) = (     0         -1          0      )
                  (    -1          0          0      )
                  (     0          0          1      )

 cart.    s(24) = (  0.5000000 -0.8660254  0.0000000 )
                  ( -0.8660254 -0.5000000  0.0000000 )
                  (  0.0000000  0.0000000  1.0000000 )


     point group D_6h(6/mmm)
     there are 12 classes
     the character table:

       E     2C6   2C3   C2    3C2'  3C2'' i     2S3   2S6   s_h   3s_d  3s_v 
A_1g   1.00  1.00  1.00  1.00  1.00  1.00  1.00  1.00  1.00  1.00  1.00  1.00
A_2g   1.00  1.00  1.00  1.00 -1.00 -1.00  1.00  1.00  1.00  1.00 -1.00 -1.00
B_1g   1.00 -1.00  1.00 -1.00  1.00 -1.00  1.00 -1.00  1.00 -1.00  1.00 -1.00
B_2g   1.00 -1.00  1.00 -1.00 -1.00  1.00  1.00 -1.00  1.00 -1.00 -1.00  1.00
E_1g   2.00  1.00 -1.00 -2.00  0.00  0.00  2.00  1.00 -1.00 -2.00  0.00  0.00
E_2g   2.00 -1.00 -1.00  2.00  0.00  0.00  2.00 -1.00 -1.00  2.00  0.00  0.00
A_1u   1.00  1.00  1.00  1.00  1.00  1.00 -1.00 -1.00 -1.00 -1.00 -1.00 -1.00
A_2u   1.00  1.00  1.00  1.00 -1.00 -1.00 -1.00 -1.00 -1.00 -1.00  1.00  1.00
B_1u   1.00 -1.00  1.00 -1.00  1.00 -1.00 -1.00  1.00 -1.00  1.00 -1.00  1.00
B_2u   1.00 -1.00  1.00 -1.00 -1.00  1.00 -1.00  1.00 -1.00  1.00  1.00 -1.00
E_1u   2.00  1.00 -1.00 -2.00  0.00  0.00 -2.00 -1.00  1.00  2.00  0.00  0.00
E_2u   2.00 -1.00 -1.00  2.00  0.00  0.00 -2.00  1.00  1.00 -2.00  0.00  0.00

     the symmetry operations in each class and the name of the first element:

     E        1
          identity                                               
     2C6      5    6
           60 deg rotation - cryst. axis [0,0,1]                 
     2C3      7    8
          120 deg rotation - cryst. axis [0,0,1]                 
     C2       2
          180 deg rotation - cart. axis [0,0,1]                  
     3C2'     4   12   11
          180 deg rotation - cart. axis [1,0,0]                  
     3C2''    3    9   10
          180 deg rotation - cart. axis [0,1,0]                  
     i       13
          inversion                                              
     2S3     17   18
          inv.  60 deg rotation - cryst. axis [0,0,1]            
     2S6     19   20
          inv. 120 deg rotation - cryst. axis [0,0,1]            
     s_h     14
          inv. 180 deg rotation - cart. axis [0,0,1]             
     3s_d    16   24   23
          inv. 180 deg rotation - cart. axis [1,0,0]             
     3s_v    15   21   22
          inv. 180 deg rotation - cart. axis [0,1,0]             

   Cartesian axes

     site n.     atom                  positions (alat units)
         1           C   tau(   1) = (   0.0000000   0.5773503   0.0000000  )
         2           C   tau(   2) = (   0.5000000   0.2886751   0.0000000  )

   Crystallographic axes

     site n.     atom                  positions (cryst. coord.)
         1           C   tau(   1) = (  0.3333333  0.6666667  0.0000000  )
         2           C   tau(   2) = (  0.6666667  0.3333333  0.0000000  )

     number of k points=   272  Methfessel-Paxton smearing, width (Ry)=  0.0050
                       cart. coord. in units 2pi/alat
        k(    1) = (   0.0156250   0.0270633   0.0000000), wk =   0.0039062
        k(    2) = (   0.0156250   0.0631477   0.0000000), wk =   0.0078125
        k(    3) = (   0.0156250   0.0992321   0.0000000), wk =   0.0078125
        k(    4) = (   0.0156250   0.1353165   0.0000000), wk =   0.0078125
        k(    5) = (   0.0156250   0.1714009   0.0000000), wk =   0.0078125
        k(    6) = (   0.0156250   0.2074853   0.0000000), wk =   0.0078125
        k(    7) = (   0.0156250   0.2435696   0.0000000), wk =   0.0078125
        k(    8) = (   0.0156250   0.2796540   0.0000000), wk =   0.0078125
        k(    9) = (   0.0156250   0.3157384   0.0000000), wk =   0.0078125
        k(   10) = (   0.0156250   0.3518228   0.0000000), wk =   0.0078125
        k(   11) = (   0.0156250   0.3879072   0.0000000), wk =   0.0078125
        k(   12) = (   0.0156250   0.4239916   0.0000000), wk =   0.0078125
        k(   13) = (   0.0156250   0.4600760   0.0000000), wk =   0.0078125
        k(   14) = (   0.0156250   0.4961604   0.0000000), wk =   0.0078125
        k(   15) = (   0.0156250   0.5322448   0.0000000), wk =   0.0078125
        k(   16) = (   0.0156250   0.5683292   0.0000000), wk =   0.0078125
        k(   17) = (   0.0156250  -0.5502870   0.0000000), wk =   0.0078125
        k(   18) = (   0.0156250  -0.5142026   0.0000000), wk =   0.0078125
        k(   19) = (   0.0156250  -0.4781182   0.0000000), wk =   0.0078125
        k(   20) = (   0.0156250  -0.4420338   0.0000000), wk =   0.0078125
        k(   21) = (   0.0156250  -0.4059494   0.0000000), wk =   0.0078125
        k(   22) = (   0.0156250  -0.3698650   0.0000000), wk =   0.0078125
        k(   23) = (   0.0156250  -0.3337806   0.0000000), wk =   0.0078125
        k(   24) = (   0.0156250  -0.2976962   0.0000000), wk =   0.0078125
        k(   25) = (   0.0156250  -0.2616118   0.0000000), wk =   0.0078125
        k(   26) = (   0.0156250  -0.2255274   0.0000000), wk =   0.0078125
        k(   27) = (   0.0156250  -0.1894431   0.0000000), wk =   0.0078125
        k(   28) = (   0.0156250  -0.1533587   0.0000000), wk =   0.0078125
        k(   29) = (   0.0156250  -0.1172743   0.0000000), wk =   0.0078125
        k(   30) = (   0.0156250  -0.0811899   0.0000000), wk =   0.0078125
        k(   31) = (   0.0156250  -0.0451055   0.0000000), wk =   0.0078125
        k(   32) = (   0.0156250  -0.0090211   0.0000000), wk =   0.0039062
        k(   33) = (   0.0468750   0.0811899   0.0000000), wk =   0.0039062
        k(   34) = (   0.0468750   0.1172743   0.0000000), wk =   0.0078125
        k(   35) = (   0.0468750   0.1533587   0.0000000), wk =   0.0078125
        k(   36) = (   0.0468750   0.1894431   0.0000000), wk =   0.0078125
        k(   37) = (   0.0468750   0.2255274   0.0000000), wk =   0.0078125
        k(   38) = (   0.0468750   0.2616118   0.0000000), wk =   0.0078125
        k(   39) = (   0.0468750   0.2976962   0.0000000), wk =   0.0078125
        k(   40) = (   0.0468750   0.3337806   0.0000000), wk =   0.0078125
        k(   41) = (   0.0468750   0.3698650   0.0000000), wk =   0.0078125
        k(   42) = (   0.0468750   0.4059494   0.0000000), wk =   0.0078125
        k(   43) = (   0.0468750   0.4420338   0.0000000), wk =   0.0078125
        k(   44) = (   0.0468750   0.4781182   0.0000000), wk =   0.0078125
        k(   45) = (   0.0468750   0.5142026   0.0000000), wk =   0.0078125
        k(   46) = (   0.0468750   0.5502870   0.0000000), wk =   0.0078125
        k(   47) = (   0.0468750   0.5863714   0.0000000), wk =   0.0078125
        k(   48) = (   0.0468750  -0.5322448   0.0000000), wk =   0.0078125
        k(   49) = (   0.0468750  -0.4961604   0.0000000), wk =   0.0078125
        k(   50) = (   0.0468750  -0.4600760   0.0000000), wk =   0.0078125
        k(   51) = (   0.0468750  -0.4239916   0.0000000), wk =   0.0078125
        k(   52) = (   0.0468750  -0.3879072   0.0000000), wk =   0.0078125
        k(   53) = (   0.0468750  -0.3518228   0.0000000), wk =   0.0078125
        k(   54) = (   0.0468750  -0.3157384   0.0000000), wk =   0.0078125
        k(   55) = (   0.0468750  -0.2796540   0.0000000), wk =   0.0078125
        k(   56) = (   0.0468750  -0.2435696   0.0000000), wk =   0.0078125
        k(   57) = (   0.0468750  -0.2074853   0.0000000), wk =   0.0078125
        k(   58) = (   0.0468750  -0.1714009   0.0000000), wk =   0.0078125
        k(   59) = (   0.0468750  -0.1353165   0.0000000), wk =   0.0078125
        k(   60) = (   0.0468750  -0.0992321   0.0000000), wk =   0.0078125
        k(   61) = (   0.0468750  -0.0631477   0.0000000), wk =   0.0078125
        k(   62) = (   0.0468750  -0.0270633   0.0000000), wk =   0.0039062
        k(   63) = (   0.0781250   0.1353165   0.0000000), wk =   0.0039062
        k(   64) = (   0.0781250   0.1714009   0.0000000), wk =   0.0078125
        k(   65) = (   0.0781250   0.2074853   0.0000000), wk =   0.0078125
        k(   66) = (   0.0781250   0.2435696   0.0000000), wk =   0.0078125
        k(   67) = (   0.0781250   0.2796540   0.0000000), wk =   0.0078125
        k(   68) = (   0.0781250   0.3157384   0.0000000), wk =   0.0078125
        k(   69) = (   0.0781250   0.3518228   0.0000000), wk =   0.0078125
        k(   70) = (   0.0781250   0.3879072   0.0000000), wk =   0.0078125
        k(   71) = (   0.0781250   0.4239916   0.0000000), wk =   0.0078125
        k(   72) = (   0.0781250   0.4600760   0.0000000), wk =   0.0078125
        k(   73) = (   0.0781250   0.4961604   0.0000000), wk =   0.0078125
        k(   74) = (   0.0781250   0.5322448   0.0000000), wk =   0.0078125
        k(   75) = (   0.0781250   0.5683292   0.0000000), wk =   0.0078125
        k(   76) = (   0.0781250   0.6044136   0.0000000), wk =   0.0078125
        k(   77) = (   0.0781250  -0.5142026   0.0000000), wk =   0.0078125
        k(   78) = (   0.0781250  -0.4781182   0.0000000), wk =   0.0078125
        k(   79) = (   0.0781250  -0.4420338   0.0000000), wk =   0.0078125
        k(   80) = (   0.0781250  -0.4059494   0.0000000), wk =   0.0078125
        k(   81) = (   0.0781250  -0.3698650   0.0000000), wk =   0.0078125
        k(   82) = (   0.0781250  -0.3337806   0.0000000), wk =   0.0078125
        k(   83) = (   0.0781250  -0.2976962   0.0000000), wk =   0.0078125
        k(   84) = (   0.0781250  -0.2616118   0.0000000), wk =   0.0078125
        k(   85) = (   0.0781250  -0.2255274   0.0000000), wk =   0.0078125
        k(   86) = (   0.0781250  -0.1894431   0.0000000), wk =   0.0078125
        k(   87) = (   0.0781250  -0.1533587   0.0000000), wk =   0.0078125
        k(   88) = (   0.0781250  -0.1172743   0.0000000), wk =   0.0078125
        k(   89) = (   0.0781250  -0.0811899   0.0000000), wk =   0.0078125
        k(   90) = (   0.0781250  -0.0451055   0.0000000), wk =   0.0039062
        k(   91) = (   0.1093750   0.1894431   0.0000000), wk =   0.0039062
        k(   92) = (   0.1093750   0.2255274   0.0000000), wk =   0.0078125
        k(   93) = (   0.1093750   0.2616118   0.0000000), wk =   0.0078125
        k(   94) = (   0.1093750   0.2976962   0.0000000), wk =   0.0078125
        k(   95) = (   0.1093750   0.3337806   0.0000000), wk =   0.0078125
        k(   96) = (   0.1093750   0.3698650   0.0000000), wk =   0.0078125
        k(   97) = (   0.1093750   0.4059494   0.0000000), wk =   0.0078125
        k(   98) = (   0.1093750   0.4420338   0.0000000), wk =   0.0078125
        k(   99) = (   0.1093750   0.4781182   0.0000000), wk =   0.0078125
        k(  100) = (   0.1093750   0.5142026   0.0000000), wk =   0.0078125
        k(  101) = (   0.1093750   0.5502870   0.0000000), wk =   0.0078125
        k(  102) = (   0.1093750   0.5863714   0.0000000), wk =   0.0078125
        k(  103) = (   0.1093750   0.6224558   0.0000000), wk =   0.0078125
        k(  104) = (   0.1093750  -0.4961604   0.0000000), wk =   0.0078125
        k(  105) = (   0.1093750  -0.4600760   0.0000000), wk =   0.0078125
        k(  106) = (   0.1093750  -0.4239916   0.0000000), wk =   0.0078125
        k(  107) = (   0.1093750  -0.3879072   0.0000000), wk =   0.0078125
        k(  108) = (   0.1093750  -0.3518228   0.0000000), wk =   0.0078125
        k(  109) = (   0.1093750  -0.3157384   0.0000000), wk =   0.0078125
        k(  110) = (   0.1093750  -0.2796540   0.0000000), wk =   0.0078125
        k(  111) = (   0.1093750  -0.2435696   0.0000000), wk =   0.0078125
        k(  112) = (   0.1093750  -0.2074853   0.0000000), wk =   0.0078125
        k(  113) = (   0.1093750  -0.1714009   0.0000000), wk =   0.0078125
        k(  114) = (   0.1093750  -0.1353165   0.0000000), wk =   0.0078125
        k(  115) = (   0.1093750  -0.0992321   0.0000000), wk =   0.0078125
        k(  116) = (   0.1093750  -0.0631477   0.0000000), wk =   0.0039062
        k(  117) = (   0.1406250   0.2435696   0.0000000), wk =   0.0039062
        k(  118) = (   0.1406250   0.2796540   0.0000000), wk =   0.0078125
        k(  119) = (   0.1406250   0.3157384   0.0000000), wk =   0.0078125
        k(  120) = (   0.1406250   0.3518228   0.0000000), wk =   0.0078125
        k(  121) = (   0.1406250   0.3879072   0.0000000), wk =   0.0078125
        k(  122) = (   0.1406250   0.4239916   0.0000000), wk =   0.0078125
        k(  123) = (   0.1406250   0.4600760   0.0000000), wk =   0.0078125
        k(  124) = (   0.1406250   0.4961604   0.0000000), wk =   0.0078125
        k(  125) = (   0.1406250   0.5322448   0.0000000), wk =   0.0078125
        k(  126) = (   0.1406250   0.5683292   0.0000000), wk =   0.0078125
        k(  127) = (   0.1406250   0.6044136   0.0000000), wk =   0.0078125
        k(  128) = (   0.1406250   0.6404980   0.0000000), wk =   0.0078125
        k(  129) = (   0.1406250  -0.4781182   0.0000000), wk =   0.0078125
        k(  130) = (   0.1406250  -0.4420338   0.0000000), wk =   0.0078125
        k(  131) = (   0.1406250  -0.4059494   0.0000000), wk =   0.0078125
        k(  132) = (   0.1406250  -0.3698650   0.0000000), wk =   0.0078125
        k(  133) = (   0.1406250  -0.3337806   0.0000000), wk =   0.0078125
        k(  134) = (   0.1406250  -0.2976962   0.0000000), wk =   0.0078125
        k(  135) = (   0.1406250  -0.2616118   0.0000000), wk =   0.0078125
        k(  136) = (   0.1406250  -0.2255274   0.0000000), wk =   0.0078125
        k(  137) = (   0.1406250  -0.1894431   0.0000000), wk =   0.0078125
        k(  138) = (   0.1406250  -0.1533587   0.0000000), wk =   0.0078125
        k(  139) = (   0.1406250  -0.1172743   0.0000000), wk =   0.0078125
        k(  140) = (   0.1406250  -0.0811899   0.0000000), wk =   0.0039062
        k(  141) = (   0.1718750   0.2976962   0.0000000), wk =   0.0039062
        k(  142) = (   0.1718750   0.3337806   0.0000000), wk =   0.0078125
        k(  143) = (   0.1718750   0.3698650   0.0000000), wk =   0.0078125
        k(  144) = (   0.1718750   0.4059494   0.0000000), wk =   0.0078125
        k(  145) = (   0.1718750   0.4420338   0.0000000), wk =   0.0078125
        k(  146) = (   0.1718750   0.4781182   0.0000000), wk =   0.0078125
        k(  147) = (   0.1718750   0.5142026   0.0000000), wk =   0.0078125
        k(  148) = (   0.1718750   0.5502870   0.0000000), wk =   0.0078125
        k(  149) = (   0.1718750   0.5863714   0.0000000), wk =   0.0078125
        k(  150) = (   0.1718750   0.6224558   0.0000000), wk =   0.0078125
        k(  151) = (   0.1718750   0.6585402   0.0000000), wk =   0.0078125
        k(  152) = (   0.1718750  -0.4600760   0.0000000), wk =   0.0078125
        k(  153) = (   0.1718750  -0.4239916   0.0000000), wk =   0.0078125
        k(  154) = (   0.1718750  -0.3879072   0.0000000), wk =   0.0078125
        k(  155) = (   0.1718750  -0.3518228   0.0000000), wk =   0.0078125
        k(  156) = (   0.1718750  -0.3157384   0.0000000), wk =   0.0078125
        k(  157) = (   0.1718750  -0.2796540   0.0000000), wk =   0.0078125
        k(  158) = (   0.1718750  -0.2435696   0.0000000), wk =   0.0078125
        k(  159) = (   0.1718750  -0.2074853   0.0000000), wk =   0.0078125
        k(  160) = (   0.1718750  -0.1714009   0.0000000), wk =   0.0078125
        k(  161) = (   0.1718750  -0.1353165   0.0000000), wk =   0.0078125
        k(  162) = (   0.1718750  -0.0992321   0.0000000), wk =   0.0039062
        k(  163) = (   0.2031250   0.3518228   0.0000000), wk =   0.0039062
        k(  164) = (   0.2031250   0.3879072   0.0000000), wk =   0.0078125
        k(  165) = (   0.2031250   0.4239916   0.0000000), wk =   0.0078125
        k(  166) = (   0.2031250   0.4600760   0.0000000), wk =   0.0078125
        k(  167) = (   0.2031250   0.4961604   0.0000000), wk =   0.0078125
        k(  168) = (   0.2031250   0.5322448   0.0000000), wk =   0.0078125
        k(  169) = (   0.2031250   0.5683292   0.0000000), wk =   0.0078125
        k(  170) = (   0.2031250   0.6044136   0.0000000), wk =   0.0078125
        k(  171) = (   0.2031250   0.6404980   0.0000000), wk =   0.0078125
        k(  172) = (   0.2031250   0.6765823   0.0000000), wk =   0.0078125
        k(  173) = (   0.2031250  -0.4420338   0.0000000), wk =   0.0078125
        k(  174) = (   0.2031250  -0.4059494   0.0000000), wk =   0.0078125
        k(  175) = (   0.2031250  -0.3698650   0.0000000), wk =   0.0078125
        k(  176) = (   0.2031250  -0.3337806   0.0000000), wk =   0.0078125
        k(  177) = (   0.2031250  -0.2976962   0.0000000), wk =   0.0078125
        k(  178) = (   0.2031250  -0.2616118   0.0000000), wk =   0.0078125
        k(  179) = (   0.2031250  -0.2255274   0.0000000), wk =   0.0078125
        k(  180) = (   0.2031250  -0.1894431   0.0000000), wk =   0.0078125
        k(  181) = (   0.2031250  -0.1533587   0.0000000), wk =   0.0078125
        k(  182) = (   0.2031250  -0.1172743   0.0000000), wk =   0.0039062
        k(  183) = (   0.2343750   0.4059494   0.0000000), wk =   0.0039062
        k(  184) = (   0.2343750   0.4420338   0.0000000), wk =   0.0078125
        k(  185) = (   0.2343750   0.4781182   0.0000000), wk =   0.0078125
        k(  186) = (   0.2343750   0.5142026   0.0000000), wk =   0.0078125
        k(  187) = (   0.2343750   0.5502870   0.0000000), wk =   0.0078125
        k(  188) = (   0.2343750   0.5863714   0.0000000), wk =   0.0078125
        k(  189) = (   0.2343750   0.6224558   0.0000000), wk =   0.0078125
        k(  190) = (   0.2343750   0.6585402   0.0000000), wk =   0.0078125
        k(  191) = (   0.2343750   0.6946245   0.0000000), wk =   0.0078125
        k(  192) = (   0.2343750  -0.4239916   0.0000000), wk =   0.0078125
        k(  193) = (   0.2343750  -0.3879072   0.0000000), wk =   0.0078125
        k(  194) = (   0.2343750  -0.3518228   0.0000000), wk =   0.0078125
        k(  195) = (   0.2343750  -0.3157384   0.0000000), wk =   0.0078125
        k(  196) = (   0.2343750  -0.2796540   0.0000000), wk =   0.0078125
        k(  197) = (   0.2343750  -0.2435696   0.0000000), wk =   0.0078125
        k(  198) = (   0.2343750  -0.2074853   0.0000000), wk =   0.0078125
        k(  199) = (   0.2343750  -0.1714009   0.0000000), wk =   0.0078125
        k(  200) = (   0.2343750  -0.1353165   0.0000000), wk =   0.0039062
        k(  201) = (   0.2656250   0.4600760   0.0000000), wk =   0.0039062
        k(  202) = (   0.2656250   0.4961604   0.0000000), wk =   0.0078125
        k(  203) = (   0.2656250   0.5322448   0.0000000), wk =   0.0078125
        k(  204) = (   0.2656250   0.5683292   0.0000000), wk =   0.0078125
        k(  205) = (   0.2656250   0.6044136   0.0000000), wk =   0.0078125
        k(  206) = (   0.2656250   0.6404980   0.0000000), wk =   0.0078125
        k(  207) = (   0.2656250   0.6765823   0.0000000), wk =   0.0078125
        k(  208) = (   0.2656250   0.7126667   0.0000000), wk =   0.0078125
        k(  209) = (   0.2656250  -0.4059494   0.0000000), wk =   0.0078125
        k(  210) = (   0.2656250  -0.3698650   0.0000000), wk =   0.0078125
        k(  211) = (   0.2656250  -0.3337806   0.0000000), wk =   0.0078125
        k(  212) = (   0.2656250  -0.2976962   0.0000000), wk =   0.0078125
        k(  213) = (   0.2656250  -0.2616118   0.0000000), wk =   0.0078125
        k(  214) = (   0.2656250  -0.2255274   0.0000000), wk =   0.0078125
        k(  215) = (   0.2656250  -0.1894431   0.0000000), wk =   0.0078125
        k(  216) = (   0.2656250  -0.1533587   0.0000000), wk =   0.0039062
        k(  217) = (   0.2968750   0.5142026   0.0000000), wk =   0.0039062
        k(  218) = (   0.2968750   0.5502870   0.0000000), wk =   0.0078125
        k(  219) = (   0.2968750   0.5863714   0.0000000), wk =   0.0078125
        k(  220) = (   0.2968750   0.6224558   0.0000000), wk =   0.0078125
        k(  221) = (   0.2968750   0.6585402   0.0000000), wk =   0.0078125
        k(  222) = (   0.2968750   0.6946245   0.0000000), wk =   0.0078125
        k(  223) = (   0.2968750   0.7307089   0.0000000), wk =   0.0078125
        k(  224) = (   0.2968750  -0.3879072   0.0000000), wk =   0.0078125
        k(  225) = (   0.2968750  -0.3518228   0.0000000), wk =   0.0078125
        k(  226) = (   0.2968750  -0.3157384   0.0000000), wk =   0.0078125
        k(  227) = (   0.2968750  -0.2796540   0.0000000), wk =   0.0078125
        k(  228) = (   0.2968750  -0.2435696   0.0000000), wk =   0.0078125
        k(  229) = (   0.2968750  -0.2074853   0.0000000), wk =   0.0078125
        k(  230) = (   0.2968750  -0.1714009   0.0000000), wk =   0.0039062
        k(  231) = (   0.3281250   0.5683292   0.0000000), wk =   0.0039062
        k(  232) = (   0.3281250   0.6044136   0.0000000), wk =   0.0078125
        k(  233) = (   0.3281250   0.6404980   0.0000000), wk =   0.0078125
        k(  234) = (   0.3281250   0.6765823   0.0000000), wk =   0.0078125
        k(  235) = (   0.3281250   0.7126667   0.0000000), wk =   0.0078125
        k(  236) = (   0.3281250   0.7487511   0.0000000), wk =   0.0078125
        k(  237) = (   0.3281250  -0.3698650   0.0000000), wk =   0.0078125
        k(  238) = (   0.3281250  -0.3337806   0.0000000), wk =   0.0078125
        k(  239) = (   0.3281250  -0.2976962   0.0000000), wk =   0.0078125
        k(  240) = (   0.3281250  -0.2616118   0.0000000), wk =   0.0078125
        k(  241) = (   0.3281250  -0.2255274   0.0000000), wk =   0.0078125
        k(  242) = (   0.3281250  -0.1894431   0.0000000), wk =   0.0039062
        k(  243) = (   0.3593750   0.6224558   0.0000000), wk =   0.0039062
        k(  244) = (   0.3593750   0.6585402   0.0000000), wk =   0.0078125
        k(  245) = (   0.3593750   0.6946245   0.0000000), wk =   0.0078125
        k(  246) = (   0.3593750   0.7307089   0.0000000), wk =   0.0078125
        k(  247) = (   0.3593750   0.7667933   0.0000000), wk =   0.0078125
        k(  248) = (   0.3593750  -0.3518228   0.0000000), wk =   0.0078125
        k(  249) = (   0.3593750  -0.3157384   0.0000000), wk =   0.0078125
        k(  250) = (   0.3593750  -0.2796540   0.0000000), wk =   0.0078125
        k(  251) = (   0.3593750  -0.2435696   0.0000000), wk =   0.0078125
        k(  252) = (   0.3593750  -0.2074853   0.0000000), wk =   0.0039062
        k(  253) = (   0.3906250   0.6765823   0.0000000), wk =   0.0039062
        k(  254) = (   0.3906250   0.7126667   0.0000000), wk =   0.0078125
        k(  255) = (   0.3906250   0.7487511   0.0000000), wk =   0.0078125
        k(  256) = (   0.3906250   0.7848355   0.0000000), wk =   0.0078125
        k(  257) = (   0.3906250  -0.3337806   0.0000000), wk =   0.0078125
        k(  258) = (   0.3906250  -0.2976962   0.0000000), wk =   0.0078125
        k(  259) = (   0.3906250  -0.2616118   0.0000000), wk =   0.0078125
        k(  260) = (   0.3906250  -0.2255274   0.0000000), wk =   0.0039062
        k(  261) = (   0.4218750   0.7307089   0.0000000), wk =   0.0039062
        k(  262) = (   0.4218750   0.7667933   0.0000000), wk =   0.0078125
        k(  263) = (   0.4218750   0.8028777   0.0000000), wk =   0.0078125
        k(  264) = (   0.4218750  -0.3157384   0.0000000), wk =   0.0078125
        k(  265) = (   0.4218750  -0.2796540   0.0000000), wk =   0.0078125
        k(  266) = (   0.4218750  -0.2435696   0.0000000), wk =   0.0039062
        k(  267) = (   0.4531250   0.7848355   0.0000000), wk =   0.0039062
        k(  268) = (   0.4531250   0.8209199   0.0000000), wk =   0.0078125
        k(  269) = (   0.4531250  -0.2976962   0.0000000), wk =   0.0078125
        k(  270) = (   0.4531250  -0.2616118   0.0000000), wk =   0.0039062
        k(  271) = (   0.4843750   0.8389621   0.0000000), wk =   0.0039062
        k(  272) = (   0.4843750  -0.2796540   0.0000000), wk =   0.0039062

                       cryst. coord.
        k(    1) = (   0.0156250   0.0156250   0.0000000), wk =   0.0039062
        k(    2) = (   0.0156250   0.0468750   0.0000000), wk =   0.0078125
        k(    3) = (   0.0156250   0.0781250   0.0000000), wk =   0.0078125
        k(    4) = (   0.0156250   0.1093750   0.0000000), wk =   0.0078125
        k(    5) = (   0.0156250   0.1406250   0.0000000), wk =   0.0078125
        k(    6) = (   0.0156250   0.1718750   0.0000000), wk =   0.0078125
        k(    7) = (   0.0156250   0.2031250   0.0000000), wk =   0.0078125
        k(    8) = (   0.0156250   0.2343750   0.0000000), wk =   0.0078125
        k(    9) = (   0.0156250   0.2656250   0.0000000), wk =   0.0078125
        k(   10) = (   0.0156250   0.2968750   0.0000000), wk =   0.0078125
        k(   11) = (   0.0156250   0.3281250   0.0000000), wk =   0.0078125
        k(   12) = (   0.0156250   0.3593750   0.0000000), wk =   0.0078125
        k(   13) = (   0.0156250   0.3906250   0.0000000), wk =   0.0078125
        k(   14) = (   0.0156250   0.4218750   0.0000000), wk =   0.0078125
        k(   15) = (   0.0156250   0.4531250   0.0000000), wk =   0.0078125
        k(   16) = (   0.0156250   0.4843750   0.0000000), wk =   0.0078125
        k(   17) = (   0.0156250  -0.4843750   0.0000000), wk =   0.0078125
        k(   18) = (   0.0156250  -0.4531250   0.0000000), wk =   0.0078125
        k(   19) = (   0.0156250  -0.4218750   0.0000000), wk =   0.0078125
        k(   20) = (   0.0156250  -0.3906250   0.0000000), wk =   0.0078125
        k(   21) = (   0.0156250  -0.3593750   0.0000000), wk =   0.0078125
        k(   22) = (   0.0156250  -0.3281250   0.0000000), wk =   0.0078125
        k(   23) = (   0.0156250  -0.2968750   0.0000000), wk =   0.0078125
        k(   24) = (   0.0156250  -0.2656250   0.0000000), wk =   0.0078125
        k(   25) = (   0.0156250  -0.2343750   0.0000000), wk =   0.0078125
        k(   26) = (   0.0156250  -0.2031250   0.0000000), wk =   0.0078125
        k(   27) = (   0.0156250  -0.1718750   0.0000000), wk =   0.0078125
        k(   28) = (   0.0156250  -0.1406250   0.0000000), wk =   0.0078125
        k(   29) = (   0.0156250  -0.1093750   0.0000000), wk =   0.0078125
        k(   30) = (   0.0156250  -0.0781250   0.0000000), wk =   0.0078125
        k(   31) = (   0.0156250  -0.0468750   0.0000000), wk =   0.0078125
        k(   32) = (   0.0156250  -0.0156250   0.0000000), wk =   0.0039062
        k(   33) = (   0.0468750   0.0468750   0.0000000), wk =   0.0039062
        k(   34) = (   0.0468750   0.0781250   0.0000000), wk =   0.0078125
        k(   35) = (   0.0468750   0.1093750   0.0000000), wk =   0.0078125
        k(   36) = (   0.0468750   0.1406250   0.0000000), wk =   0.0078125
        k(   37) = (   0.0468750   0.1718750   0.0000000), wk =   0.0078125
        k(   38) = (   0.0468750   0.2031250   0.0000000), wk =   0.0078125
        k(   39) = (   0.0468750   0.2343750   0.0000000), wk =   0.0078125
        k(   40) = (   0.0468750   0.2656250   0.0000000), wk =   0.0078125
        k(   41) = (   0.0468750   0.2968750   0.0000000), wk =   0.0078125
        k(   42) = (   0.0468750   0.3281250   0.0000000), wk =   0.0078125
        k(   43) = (   0.0468750   0.3593750   0.0000000), wk =   0.0078125
        k(   44) = (   0.0468750   0.3906250   0.0000000), wk =   0.0078125
        k(   45) = (   0.0468750   0.4218750   0.0000000), wk =   0.0078125
        k(   46) = (   0.0468750   0.4531250   0.0000000), wk =   0.0078125
        k(   47) = (   0.0468750   0.4843750   0.0000000), wk =   0.0078125
        k(   48) = (   0.0468750  -0.4843750   0.0000000), wk =   0.0078125
        k(   49) = (   0.0468750  -0.4531250   0.0000000), wk =   0.0078125
        k(   50) = (   0.0468750  -0.4218750   0.0000000), wk =   0.0078125
        k(   51) = (   0.0468750  -0.3906250   0.0000000), wk =   0.0078125
        k(   52) = (   0.0468750  -0.3593750   0.0000000), wk =   0.0078125
        k(   53) = (   0.0468750  -0.3281250   0.0000000), wk =   0.0078125
        k(   54) = (   0.0468750  -0.2968750   0.0000000), wk =   0.0078125
        k(   55) = (   0.0468750  -0.2656250   0.0000000), wk =   0.0078125
        k(   56) = (   0.0468750  -0.2343750   0.0000000), wk =   0.0078125
        k(   57) = (   0.0468750  -0.2031250   0.0000000), wk =   0.0078125
        k(   58) = (   0.0468750  -0.1718750   0.0000000), wk =   0.0078125
        k(   59) = (   0.0468750  -0.1406250   0.0000000), wk =   0.0078125
        k(   60) = (   0.0468750  -0.1093750   0.0000000), wk =   0.0078125
        k(   61) = (   0.0468750  -0.0781250   0.0000000), wk =   0.0078125
        k(   62) = (   0.0468750  -0.0468750   0.0000000), wk =   0.0039062
        k(   63) = (   0.0781250   0.0781250   0.0000000), wk =   0.0039062
        k(   64) = (   0.0781250   0.1093750   0.0000000), wk =   0.0078125
        k(   65) = (   0.0781250   0.1406250   0.0000000), wk =   0.0078125
        k(   66) = (   0.0781250   0.1718750   0.0000000), wk =   0.0078125
        k(   67) = (   0.0781250   0.2031250   0.0000000), wk =   0.0078125
        k(   68) = (   0.0781250   0.2343750   0.0000000), wk =   0.0078125
        k(   69) = (   0.0781250   0.2656250   0.0000000), wk =   0.0078125
        k(   70) = (   0.0781250   0.2968750   0.0000000), wk =   0.0078125
        k(   71) = (   0.0781250   0.3281250   0.0000000), wk =   0.0078125
        k(   72) = (   0.0781250   0.3593750   0.0000000), wk =   0.0078125
        k(   73) = (   0.0781250   0.3906250   0.0000000), wk =   0.0078125
        k(   74) = (   0.0781250   0.4218750   0.0000000), wk =   0.0078125
        k(   75) = (   0.0781250   0.4531250   0.0000000), wk =   0.0078125
        k(   76) = (   0.0781250   0.4843750   0.0000000), wk =   0.0078125
        k(   77) = (   0.0781250  -0.4843750   0.0000000), wk =   0.0078125
        k(   78) = (   0.0781250  -0.4531250   0.0000000), wk =   0.0078125
        k(   79) = (   0.0781250  -0.4218750   0.0000000), wk =   0.0078125
        k(   80) = (   0.0781250  -0.3906250   0.0000000), wk =   0.0078125
        k(   81) = (   0.0781250  -0.3593750   0.0000000), wk =   0.0078125
        k(   82) = (   0.0781250  -0.3281250   0.0000000), wk =   0.0078125
        k(   83) = (   0.0781250  -0.2968750   0.0000000), wk =   0.0078125
        k(   84) = (   0.0781250  -0.2656250   0.0000000), wk =   0.0078125
        k(   85) = (   0.0781250  -0.2343750   0.0000000), wk =   0.0078125
        k(   86) = (   0.0781250  -0.2031250   0.0000000), wk =   0.0078125
        k(   87) = (   0.0781250  -0.1718750   0.0000000), wk =   0.0078125
        k(   88) = (   0.0781250  -0.1406250   0.0000000), wk =   0.0078125
        k(   89) = (   0.0781250  -0.1093750   0.0000000), wk =   0.0078125
        k(   90) = (   0.0781250  -0.0781250   0.0000000), wk =   0.0039062
        k(   91) = (   0.1093750   0.1093750   0.0000000), wk =   0.0039062
        k(   92) = (   0.1093750   0.1406250   0.0000000), wk =   0.0078125
        k(   93) = (   0.1093750   0.1718750   0.0000000), wk =   0.0078125
        k(   94) = (   0.1093750   0.2031250   0.0000000), wk =   0.0078125
        k(   95) = (   0.1093750   0.2343750   0.0000000), wk =   0.0078125
        k(   96) = (   0.1093750   0.2656250   0.0000000), wk =   0.0078125
        k(   97) = (   0.1093750   0.2968750   0.0000000), wk =   0.0078125
        k(   98) = (   0.1093750   0.3281250   0.0000000), wk =   0.0078125
        k(   99) = (   0.1093750   0.3593750   0.0000000), wk =   0.0078125
        k(  100) = (   0.1093750   0.3906250   0.0000000), wk =   0.0078125
        k(  101) = (   0.1093750   0.4218750   0.0000000), wk =   0.0078125
        k(  102) = (   0.1093750   0.4531250   0.0000000), wk =   0.0078125
        k(  103) = (   0.1093750   0.4843750   0.0000000), wk =   0.0078125
        k(  104) = (   0.1093750  -0.4843750   0.0000000), wk =   0.0078125
        k(  105) = (   0.1093750  -0.4531250   0.0000000), wk =   0.0078125
        k(  106) = (   0.1093750  -0.4218750   0.0000000), wk =   0.0078125
        k(  107) = (   0.1093750  -0.3906250   0.0000000), wk =   0.0078125
        k(  108) = (   0.1093750  -0.3593750   0.0000000), wk =   0.0078125
        k(  109) = (   0.1093750  -0.3281250   0.0000000), wk =   0.0078125
        k(  110) = (   0.1093750  -0.2968750   0.0000000), wk =   0.0078125
        k(  111) = (   0.1093750  -0.2656250   0.0000000), wk =   0.0078125
        k(  112) = (   0.1093750  -0.2343750   0.0000000), wk =   0.0078125
        k(  113) = (   0.1093750  -0.2031250   0.0000000), wk =   0.0078125
        k(  114) = (   0.1093750  -0.1718750   0.0000000), wk =   0.0078125
        k(  115) = (   0.1093750  -0.1406250   0.0000000), wk =   0.0078125
        k(  116) = (   0.1093750  -0.1093750   0.0000000), wk =   0.0039062
        k(  117) = (   0.1406250   0.1406250   0.0000000), wk =   0.0039062
        k(  118) = (   0.1406250   0.1718750   0.0000000), wk =   0.0078125
        k(  119) = (   0.1406250   0.2031250   0.0000000), wk =   0.0078125
        k(  120) = (   0.1406250   0.2343750   0.0000000), wk =   0.0078125
        k(  121) = (   0.1406250   0.2656250   0.0000000), wk =   0.0078125
        k(  122) = (   0.1406250   0.2968750   0.0000000), wk =   0.0078125
        k(  123) = (   0.1406250   0.3281250   0.0000000), wk =   0.0078125
        k(  124) = (   0.1406250   0.3593750   0.0000000), wk =   0.0078125
        k(  125) = (   0.1406250   0.3906250   0.0000000), wk =   0.0078125
        k(  126) = (   0.1406250   0.4218750   0.0000000), wk =   0.0078125
        k(  127) = (   0.1406250   0.4531250   0.0000000), wk =   0.0078125
        k(  128) = (   0.1406250   0.4843750   0.0000000), wk =   0.0078125
        k(  129) = (   0.1406250  -0.4843750   0.0000000), wk =   0.0078125
        k(  130) = (   0.1406250  -0.4531250   0.0000000), wk =   0.0078125
        k(  131) = (   0.1406250  -0.4218750   0.0000000), wk =   0.0078125
        k(  132) = (   0.1406250  -0.3906250   0.0000000), wk =   0.0078125
        k(  133) = (   0.1406250  -0.3593750   0.0000000), wk =   0.0078125
        k(  134) = (   0.1406250  -0.3281250   0.0000000), wk =   0.0078125
        k(  135) = (   0.1406250  -0.2968750   0.0000000), wk =   0.0078125
        k(  136) = (   0.1406250  -0.2656250   0.0000000), wk =   0.0078125
        k(  137) = (   0.1406250  -0.2343750   0.0000000), wk =   0.0078125
        k(  138) = (   0.1406250  -0.2031250   0.0000000), wk =   0.0078125
        k(  139) = (   0.1406250  -0.1718750   0.0000000), wk =   0.0078125
        k(  140) = (   0.1406250  -0.1406250   0.0000000), wk =   0.0039062
        k(  141) = (   0.1718750   0.1718750   0.0000000), wk =   0.0039062
        k(  142) = (   0.1718750   0.2031250   0.0000000), wk =   0.0078125
        k(  143) = (   0.1718750   0.2343750   0.0000000), wk =   0.0078125
        k(  144) = (   0.1718750   0.2656250   0.0000000), wk =   0.0078125
        k(  145) = (   0.1718750   0.2968750   0.0000000), wk =   0.0078125
        k(  146) = (   0.1718750   0.3281250   0.0000000), wk =   0.0078125
        k(  147) = (   0.1718750   0.3593750   0.0000000), wk =   0.0078125
        k(  148) = (   0.1718750   0.3906250   0.0000000), wk =   0.0078125
        k(  149) = (   0.1718750   0.4218750   0.0000000), wk =   0.0078125
        k(  150) = (   0.1718750   0.4531250   0.0000000), wk =   0.0078125
        k(  151) = (   0.1718750   0.4843750   0.0000000), wk =   0.0078125
        k(  152) = (   0.1718750  -0.4843750   0.0000000), wk =   0.0078125
        k(  153) = (   0.1718750  -0.4531250   0.0000000), wk =   0.0078125
        k(  154) = (   0.1718750  -0.4218750   0.0000000), wk =   0.0078125
        k(  155) = (   0.1718750  -0.3906250   0.0000000), wk =   0.0078125
        k(  156) = (   0.1718750  -0.3593750   0.0000000), wk =   0.0078125
        k(  157) = (   0.1718750  -0.3281250   0.0000000), wk =   0.0078125
        k(  158) = (   0.1718750  -0.2968750   0.0000000), wk =   0.0078125
        k(  159) = (   0.1718750  -0.2656250   0.0000000), wk =   0.0078125
        k(  160) = (   0.1718750  -0.2343750   0.0000000), wk =   0.0078125
        k(  161) = (   0.1718750  -0.2031250   0.0000000), wk =   0.0078125
        k(  162) = (   0.1718750  -0.1718750   0.0000000), wk =   0.0039062
        k(  163) = (   0.2031250   0.2031250   0.0000000), wk =   0.0039062
        k(  164) = (   0.2031250   0.2343750   0.0000000), wk =   0.0078125
        k(  165) = (   0.2031250   0.2656250   0.0000000), wk =   0.0078125
        k(  166) = (   0.2031250   0.2968750   0.0000000), wk =   0.0078125
        k(  167) = (   0.2031250   0.3281250   0.0000000), wk =   0.0078125
        k(  168) = (   0.2031250   0.3593750   0.0000000), wk =   0.0078125
        k(  169) = (   0.2031250   0.3906250   0.0000000), wk =   0.0078125
        k(  170) = (   0.2031250   0.4218750   0.0000000), wk =   0.0078125
        k(  171) = (   0.2031250   0.4531250   0.0000000), wk =   0.0078125
        k(  172) = (   0.2031250   0.4843750   0.0000000), wk =   0.0078125
        k(  173) = (   0.2031250  -0.4843750   0.0000000), wk =   0.0078125
        k(  174) = (   0.2031250  -0.4531250   0.0000000), wk =   0.0078125
        k(  175) = (   0.2031250  -0.4218750   0.0000000), wk =   0.0078125
        k(  176) = (   0.2031250  -0.3906250   0.0000000), wk =   0.0078125
        k(  177) = (   0.2031250  -0.3593750   0.0000000), wk =   0.0078125
        k(  178) = (   0.2031250  -0.3281250   0.0000000), wk =   0.0078125
        k(  179) = (   0.2031250  -0.2968750   0.0000000), wk =   0.0078125
        k(  180) = (   0.2031250  -0.2656250   0.0000000), wk =   0.0078125
        k(  181) = (   0.2031250  -0.2343750   0.0000000), wk =   0.0078125
        k(  182) = (   0.2031250  -0.2031250   0.0000000), wk =   0.0039062
        k(  183) = (   0.2343750   0.2343750   0.0000000), wk =   0.0039062
        k(  184) = (   0.2343750   0.2656250   0.0000000), wk =   0.0078125
        k(  185) = (   0.2343750   0.2968750   0.0000000), wk =   0.0078125
        k(  186) = (   0.2343750   0.3281250   0.0000000), wk =   0.0078125
        k(  187) = (   0.2343750   0.3593750   0.0000000), wk =   0.0078125
        k(  188) = (   0.2343750   0.3906250   0.0000000), wk =   0.0078125
        k(  189) = (   0.2343750   0.4218750   0.0000000), wk =   0.0078125
        k(  190) = (   0.2343750   0.4531250   0.0000000), wk =   0.0078125
        k(  191) = (   0.2343750   0.4843750   0.0000000), wk =   0.0078125
        k(  192) = (   0.2343750  -0.4843750   0.0000000), wk =   0.0078125
        k(  193) = (   0.2343750  -0.4531250   0.0000000), wk =   0.0078125
        k(  194) = (   0.2343750  -0.4218750   0.0000000), wk =   0.0078125
        k(  195) = (   0.2343750  -0.3906250   0.0000000), wk =   0.0078125
        k(  196) = (   0.2343750  -0.3593750   0.0000000), wk =   0.0078125
        k(  197) = (   0.2343750  -0.3281250   0.0000000), wk =   0.0078125
        k(  198) = (   0.2343750  -0.2968750   0.0000000), wk =   0.0078125
        k(  199) = (   0.2343750  -0.2656250   0.0000000), wk =   0.0078125
        k(  200) = (   0.2343750  -0.2343750   0.0000000), wk =   0.0039062
        k(  201) = (   0.2656250   0.2656250   0.0000000), wk =   0.0039062
        k(  202) = (   0.2656250   0.2968750   0.0000000), wk =   0.0078125
        k(  203) = (   0.2656250   0.3281250   0.0000000), wk =   0.0078125
        k(  204) = (   0.2656250   0.3593750   0.0000000), wk =   0.0078125
        k(  205) = (   0.2656250   0.3906250   0.0000000), wk =   0.0078125
        k(  206) = (   0.2656250   0.4218750   0.0000000), wk =   0.0078125
        k(  207) = (   0.2656250   0.4531250   0.0000000), wk =   0.0078125
        k(  208) = (   0.2656250   0.4843750   0.0000000), wk =   0.0078125
        k(  209) = (   0.2656250  -0.4843750   0.0000000), wk =   0.0078125
        k(  210) = (   0.2656250  -0.4531250   0.0000000), wk =   0.0078125
        k(  211) = (   0.2656250  -0.4218750   0.0000000), wk =   0.0078125
        k(  212) = (   0.2656250  -0.3906250   0.0000000), wk =   0.0078125
        k(  213) = (   0.2656250  -0.3593750   0.0000000), wk =   0.0078125
        k(  214) = (   0.2656250  -0.3281250   0.0000000), wk =   0.0078125
        k(  215) = (   0.2656250  -0.2968750   0.0000000), wk =   0.0078125
        k(  216) = (   0.2656250  -0.2656250   0.0000000), wk =   0.0039062
        k(  217) = (   0.2968750   0.2968750   0.0000000), wk =   0.0039062
        k(  218) = (   0.2968750   0.3281250   0.0000000), wk =   0.0078125
        k(  219) = (   0.2968750   0.3593750   0.0000000), wk =   0.0078125
        k(  220) = (   0.2968750   0.3906250   0.0000000), wk =   0.0078125
        k(  221) = (   0.2968750   0.4218750   0.0000000), wk =   0.0078125
        k(  222) = (   0.2968750   0.4531250   0.0000000), wk =   0.0078125
        k(  223) = (   0.2968750   0.4843750   0.0000000), wk =   0.0078125
        k(  224) = (   0.2968750  -0.4843750   0.0000000), wk =   0.0078125
        k(  225) = (   0.2968750  -0.4531250   0.0000000), wk =   0.0078125
        k(  226) = (   0.2968750  -0.4218750   0.0000000), wk =   0.0078125
        k(  227) = (   0.2968750  -0.3906250   0.0000000), wk =   0.0078125
        k(  228) = (   0.2968750  -0.3593750   0.0000000), wk =   0.0078125
        k(  229) = (   0.2968750  -0.3281250   0.0000000), wk =   0.0078125
        k(  230) = (   0.2968750  -0.2968750   0.0000000), wk =   0.0039062
        k(  231) = (   0.3281250   0.3281250   0.0000000), wk =   0.0039062
        k(  232) = (   0.3281250   0.3593750   0.0000000), wk =   0.0078125
        k(  233) = (   0.3281250   0.3906250   0.0000000), wk =   0.0078125
        k(  234) = (   0.3281250   0.4218750   0.0000000), wk =   0.0078125
        k(  235) = (   0.3281250   0.4531250   0.0000000), wk =   0.0078125
        k(  236) = (   0.3281250   0.4843750   0.0000000), wk =   0.0078125
        k(  237) = (   0.3281250  -0.4843750   0.0000000), wk =   0.0078125
        k(  238) = (   0.3281250  -0.4531250   0.0000000), wk =   0.0078125
        k(  239) = (   0.3281250  -0.4218750   0.0000000), wk =   0.0078125
        k(  240) = (   0.3281250  -0.3906250   0.0000000), wk =   0.0078125
        k(  241) = (   0.3281250  -0.3593750   0.0000000), wk =   0.0078125
        k(  242) = (   0.3281250  -0.3281250   0.0000000), wk =   0.0039062
        k(  243) = (   0.3593750   0.3593750   0.0000000), wk =   0.0039062
        k(  244) = (   0.3593750   0.3906250   0.0000000), wk =   0.0078125
        k(  245) = (   0.3593750   0.4218750   0.0000000), wk =   0.0078125
        k(  246) = (   0.3593750   0.4531250   0.0000000), wk =   0.0078125
        k(  247) = (   0.3593750   0.4843750   0.0000000), wk =   0.0078125
        k(  248) = (   0.3593750  -0.4843750   0.0000000), wk =   0.0078125
        k(  249) = (   0.3593750  -0.4531250   0.0000000), wk =   0.0078125
        k(  250) = (   0.3593750  -0.4218750   0.0000000), wk =   0.0078125
        k(  251) = (   0.3593750  -0.3906250   0.0000000), wk =   0.0078125
        k(  252) = (   0.3593750  -0.3593750   0.0000000), wk =   0.0039062
        k(  253) = (   0.3906250   0.3906250   0.0000000), wk =   0.0039062
        k(  254) = (   0.3906250   0.4218750   0.0000000), wk =   0.0078125
        k(  255) = (   0.3906250   0.4531250   0.0000000), wk =   0.0078125
        k(  256) = (   0.3906250   0.4843750   0.0000000), wk =   0.0078125
        k(  257) = (   0.3906250  -0.4843750   0.0000000), wk =   0.0078125
        k(  258) = (   0.3906250  -0.4531250   0.0000000), wk =   0.0078125
        k(  259) = (   0.3906250  -0.4218750   0.0000000), wk =   0.0078125
        k(  260) = (   0.3906250  -0.3906250   0.0000000), wk =   0.0039062
        k(  261) = (   0.4218750   0.4218750   0.0000000), wk =   0.0039062
        k(  262) = (   0.4218750   0.4531250   0.0000000), wk =   0.0078125
        k(  263) = (   0.4218750   0.4843750   0.0000000), wk =   0.0078125
        k(  264) = (   0.4218750  -0.4843750   0.0000000), wk =   0.0078125
        k(  265) = (   0.4218750  -0.4531250   0.0000000), wk =   0.0078125
        k(  266) = (   0.4218750  -0.4218750   0.0000000), wk =   0.0039062
        k(  267) = (   0.4531250   0.4531250   0.0000000), wk =   0.0039062
        k(  268) = (   0.4531250   0.4843750   0.0000000), wk =   0.0078125
        k(  269) = (   0.4531250  -0.4843750   0.0000000), wk =   0.0078125
        k(  270) = (   0.4531250  -0.4531250   0.0000000), wk =   0.0039062
        k(  271) = (   0.4843750   0.4843750   0.0000000), wk =   0.0039062
        k(  272) = (   0.4843750  -0.4843750   0.0000000), wk =   0.0039062

     Dense  grid:   115897 G-vectors     FFT dimensions: (  30,  30, 300)

     Dynamical RAM for                 wfc:       1.77 MB

     Dynamical RAM for     wfc (w. buffer):       1.77 MB

     Dynamical RAM for           str. fact:       1.77 MB

     Dynamical RAM for           local pot:       0.00 MB

     Dynamical RAM for          nlocal pot:       3.54 MB

     Dynamical RAM for                qrad:       0.46 MB

     Dynamical RAM for          rho,v,vnew:      11.49 MB

     Dynamical RAM for               rhoin:       3.83 MB

     Dynamical RAM for            rho*nmix:      28.30 MB

     Dynamical RAM for           G-vectors:       7.52 MB

     Dynamical RAM for          h,s,v(r/c):       0.01 MB

     Dynamical RAM for          <psi|beta>:       0.00 MB

     Dynamical RAM for                 psi:       3.54 MB

     Dynamical RAM for                hpsi:       3.54 MB

     Dynamical RAM for      wfcinit/wfcrot:       3.54 MB

     Estimated static dynamical RAM per process >      44.20 MB

     Estimated max dynamical RAM per process >      79.58 MB

     Estimated total dynamical RAM >      25.67 GB

     Initial potential from superposition of free atoms

     starting charge       7.9999, renormalised to       8.0000

     negative rho (up, down):  2.514E-06 0.000E+00
     Starting wfcs are    8 randomized atomic wfcs

     total cpu time spent up to now is        0.8 secs

     Self-consistent Calculation

     iteration #  1     ecut=   100.00 Ry     beta= 0.70
     Davidson diagonalization with overlap

---- Real-time Memory Report at c_bands before calling an iterative solver
           194 MiB given to the printing process from OS
             0 MiB allocation reported by mallinfo(arena+hblkhd)
        177222 MiB available memory on the node where the printing process lives
------------------
     ethr =  1.00E-02,  avg # of iterations =  5.9

     total cpu time spent up to now is        1.5 secs

     total energy              =     -24.08914246 Ry
     estimated scf accuracy    <       0.21523293 Ry

     iteration #  2     ecut=   100.00 Ry     beta= 0.70
     Davidson diagonalization with overlap

---- Real-time Memory Report at c_bands before calling an iterative solver
           232 MiB given to the printing process from OS
             0 MiB allocation reported by mallinfo(arena+hblkhd)
        176863 MiB available memory on the node where the printing process lives
------------------
     ethr =  2.69E-03,  avg # of iterations =  4.3

     total cpu time spent up to now is        2.0 secs

     total energy              =     -24.12305047 Ry
     estimated scf accuracy    <       0.00212679 Ry

     iteration #  3     ecut=   100.00 Ry     beta= 0.70
     Davidson diagonalization with overlap

---- Real-time Memory Report at c_bands before calling an iterative solver
           236 MiB given to the printing process from OS
             0 MiB allocation reported by mallinfo(arena+hblkhd)
        176857 MiB available memory on the node where the printing process lives
------------------
     ethr =  2.66E-05,  avg # of iterations = 14.2

     total cpu time spent up to now is        2.9 secs

     total energy              =     -24.12348603 Ry
     estimated scf accuracy    <       0.00013578 Ry

     iteration #  4     ecut=   100.00 Ry     beta= 0.70
     Davidson diagonalization with overlap

---- Real-time Memory Report at c_bands before calling an iterative solver
           240 MiB given to the printing process from OS
             0 MiB allocation reported by mallinfo(arena+hblkhd)
        176861 MiB available memory on the node where the printing process lives
------------------
     ethr =  1.70E-06,  avg # of iterations =  6.7

     total cpu time spent up to now is        3.5 secs

     total energy              =     -24.12349956 Ry
     estimated scf accuracy    <       0.00000309 Ry

     iteration #  5     ecut=   100.00 Ry     beta= 0.70
     Davidson diagonalization with overlap

---- Real-time Memory Report at c_bands before calling an iterative solver
           244 MiB given to the printing process from OS
             0 MiB allocation reported by mallinfo(arena+hblkhd)
        176858 MiB available memory on the node where the printing process lives
------------------
     ethr =  3.86E-08,  avg # of iterations =  3.2

     total cpu time spent up to now is        4.0 secs

     total energy              =     -24.12350111 Ry
     estimated scf accuracy    <       0.00000008 Ry

     iteration #  6     ecut=   100.00 Ry     beta= 0.70
     Davidson diagonalization with overlap

---- Real-time Memory Report at c_bands before calling an iterative solver
           247 MiB given to the printing process from OS
             0 MiB allocation reported by mallinfo(arena+hblkhd)
        176851 MiB available memory on the node where the printing process lives
------------------
     ethr =  9.72E-10,  avg # of iterations =  3.1

     total cpu time spent up to now is        4.5 secs

     total energy              =     -24.12350114 Ry
     estimated scf accuracy    <          2.0E-09 Ry

     iteration #  7     ecut=   100.00 Ry     beta= 0.70
     Davidson diagonalization with overlap

---- Real-time Memory Report at c_bands before calling an iterative solver
           251 MiB given to the printing process from OS
             0 MiB allocation reported by mallinfo(arena+hblkhd)
        176849 MiB available memory on the node where the printing process lives
------------------
     ethr =  2.51E-11,  avg # of iterations =  3.1

     total cpu time spent up to now is        5.1 secs

     total energy              =     -24.12350114 Ry
     estimated scf accuracy    <          6.1E-12 Ry

     iteration #  8     ecut=   100.00 Ry     beta= 0.70
     Davidson diagonalization with overlap

---- Real-time Memory Report at c_bands before calling an iterative solver
           254 MiB given to the printing process from OS
             0 MiB allocation reported by mallinfo(arena+hblkhd)
        176844 MiB available memory on the node where the printing process lives
------------------
     ethr =  1.00E-13,  avg # of iterations =  3.7

     total cpu time spent up to now is        5.6 secs

     total energy              =     -24.12350114 Ry
     estimated scf accuracy    <          1.2E-12 Ry

     iteration #  9     ecut=   100.00 Ry     beta= 0.70
     Davidson diagonalization with overlap

---- Real-time Memory Report at c_bands before calling an iterative solver
           258 MiB given to the printing process from OS
             0 MiB allocation reported by mallinfo(arena+hblkhd)
        176838 MiB available memory on the node where the printing process lives
------------------
     ethr =  1.00E-13,  avg # of iterations =  1.0

     total cpu time spent up to now is        5.9 secs

     End of self-consistent calculation

          k = 0.0156 0.0271 0.0000 ( 14577 PWs)   bands (ev):

   -22.3869 -10.6949  -6.0076  -5.9762   0.4556   1.3933   1.7058   2.2369

     occupation numbers 
     1.0000   1.0000   1.0000   1.0000  -0.0000  -0.0000  -0.0000  -0.0000

          k = 0.0156 0.0631 0.0000 ( 14585 PWs)   bands (ev):

   -22.3290 -10.6245  -6.2371  -6.1037   0.5344   1.4736   1.7872   2.3179

     occupation numbers 
     1.0000   1.0000   1.0000   1.0000  -0.0000  -0.0000  -0.0000  -0.0000

          k = 0.0156 0.0992 0.0000 ( 14579 PWs)   bands (ev):

   -22.2247 -10.4979  -6.6310  -6.3175   0.6762   1.6181   1.9340   2.4635

     occupation numbers 
     1.0000   1.0000   1.0000   1.0000  -0.0000  -0.0000  -0.0000  -0.0000

          k = 0.0156 0.1353 0.0000 ( 14563 PWs)   bands (ev):

   -22.0743 -10.3158  -7.1621  -6.5961   0.8812   1.8266   2.1461   2.6742

     occupation numbers 
     1.0000   1.0000   1.0000   1.0000  -0.0000  -0.0000  -0.0000  -0.0000

          k = 0.0156 0.1714 0.0000 ( 14515 PWs)   bands (ev):

   -21.8780 -10.0787  -7.8007  -6.9164   1.1493   2.0989   2.4233   2.9488

     occupation numbers 
     1.0000   1.0000   1.0000   1.0000  -0.0000  -0.0000  -0.0000  -0.0000

          k = 0.0156 0.2075 0.0000 ( 14510 PWs)   bands (ev):

   -21.6360  -9.7877  -8.5183  -7.2576   1.4802   2.4345   2.7659   3.2881

     occupation numbers 
     1.0000   1.0000   1.0000   1.0000  -0.0000  -0.0000  -0.0000  -0.0000

          k = 0.0156 0.2436 0.0000 ( 14515 PWs)   bands (ev):

   -21.3488  -9.4442  -9.2906  -7.6024   1.8739   2.8321   3.1737   3.6906

     occupation numbers 
     1.0000   1.0000   1.0000   1.0000  -0.0000  -0.0000  -0.0000  -0.0000

          k = 0.0156 0.2797 0.0000 ( 14519 PWs)   bands (ev):

   -21.0169 -10.0973  -9.0504  -7.9372   2.3299   3.2855   3.6467   4.1459

     occupation numbers 
     1.0000   1.0000   1.0000   1.0000  -0.0000  -0.0000  -0.0000  -0.0000

          k = 0.0156 0.3157 0.0000 ( 14519 PWs)   bands (ev):

   -20.6408 -10.9223  -8.6089  -8.2515   2.8477   3.6074   3.9657   4.1847

     occupation numbers 
     1.0000   1.0000   1.0000   1.0000  -0.0000  -0.0000  -0.0000  -0.0000

          k = 0.0156 0.3518 0.0000 ( 14492 PWs)   bands (ev):

   -20.2215 -11.7526  -8.5376  -8.1242   2.8397   3.4261   4.4452   4.7871

     occupation numbers 
     1.0000   1.0000   1.0000   1.0000  -0.0000  -0.0000  -0.0000  -0.0000

          k = 0.0156 0.3879 0.0000 ( 14475 PWs)   bands (ev):

   -19.7599 -12.5779  -8.7895  -7.6029   1.9652   4.0617   5.0881   5.1428

     occupation numbers 
     1.0000   1.0000   1.0000   1.0000  -0.0000  -0.0000  -0.0000  -0.0000

          k = 0.0156 0.4240 0.0000 ( 14461 PWs)   bands (ev):

   -19.2577 -13.3893  -9.0029  -7.0557   1.1056   4.7248   5.0951   5.7975

     occupation numbers 
     1.0000   1.0000   1.0000   1.0000  -0.0000  -0.0000  -0.0000  -0.0000

          k = 0.0156 0.4601 0.0000 ( 14458 PWs)   bands (ev):

   -18.7173 -14.1792  -9.1745  -6.5017   0.2940   4.9341   5.5724   6.5669

     occupation numbers 
     1.0000   1.0000   1.0000   1.0000  -0.0000  -0.0000  -0.0000  -0.0000

          k = 0.0156 0.4962 0.0000 ( 14456 PWs)   bands (ev):

   -18.1441 -14.9382  -9.3019  -5.9763  -0.4259   4.8929   6.3752   7.3919

     occupation numbers 
     1.0000   1.0000   1.0000   1.0000  -0.0000  -0.0000  -0.0000  -0.0000

          k = 0.0156 0.5322 0.0000 ( 14457 PWs)   bands (ev):

   -17.5550 -15.6467  -9.3838  -5.5476  -0.9810   4.8591   7.2451   8.2646

     occupation numbers 
     1.0000   1.0000   1.0000   1.0000  -0.0000  -0.0000  -0.0000  -0.0000

          k = 0.0156 0.5683 0.0000 ( 14470 PWs)   bands (ev):

   -17.0685 -16.1847  -9.4190  -5.3256  -1.2577   4.8438   8.1655   8.6518

     occupation numbers 
     1.0000   1.0000   1.0000   1.0000  -0.0000  -0.0000  -0.0000  -0.0000

          k = 0.0156-0.5503 0.0000 ( 14451 PWs)   bands (ev):

   -17.2768 -15.9593  -9.4073  -5.4030  -1.1620   4.8489   7.7002   8.7118

     occupation numbers 
     1.0000   1.0000   1.0000   1.0000  -0.0000  -0.0000  -0.0000  -0.0000

          k = 0.0156-0.5142 0.0000 ( 14449 PWs)   bands (ev):

   -17.8492 -15.3012  -9.3487  -5.7438  -0.7304   4.8739   6.8030   7.8231

     occupation numbers 
     1.0000   1.0000   1.0000   1.0000  -0.0000  -0.0000  -0.0000  -0.0000

          k = 0.0156-0.4781 0.0000 ( 14456 PWs)   bands (ev):

   -18.4343 -14.5633  -9.2438  -6.2321  -0.0810   4.9146   5.9634   6.9727

     occupation numbers 
     1.0000   1.0000   1.0000   1.0000  -0.0000  -0.0000  -0.0000  -0.0000

          k = 0.0156-0.4420 0.0000 ( 14450 PWs)   bands (ev):

   -18.9921 -13.7874  -9.0940  -6.7778   0.6916   4.9228   5.2312   6.1749

     occupation numbers 
     1.0000   1.0000   1.0000   1.0000  -0.0000  -0.0000  -0.0000  -0.0000

          k = 0.0156-0.4059 0.0000 ( 14468 PWs)   bands (ev):

   -19.5138 -12.9858  -8.9012  -7.3316   1.5315   4.3964   5.1074   5.4349

     occupation numbers 
     1.0000   1.0000   1.0000   1.0000  -0.0000  -0.0000  -0.0000  -0.0000

          k = 0.0156-0.3699 0.0000 ( 14477 PWs)   bands (ev):

   -19.9959 -12.1665  -8.6681  -7.8676   2.4028   3.7372   4.7575   5.1053

     occupation numbers 
     1.0000   1.0000   1.0000   1.0000  -0.0000  -0.0000  -0.0000  -0.0000

          k = 0.0156-0.3338 0.0000 ( 14506 PWs)   bands (ev):

   -20.4365 -11.3375  -8.3985  -8.3717   3.1294   3.2657   4.1584   4.4780

     occupation numbers 
     1.0000   1.0000   1.0000   1.0000  -0.0000  -0.0000  -0.0000  -0.0000

          k = 0.0156-0.2977 0.0000 ( 14517 PWs)   bands (ev):

   -20.8343 -10.5084  -8.8354  -8.0974   2.5811   3.5185   3.9075   4.1898

     occupation numbers 
     1.0000   1.0000   1.0000   1.0000  -0.0000  -0.0000  -0.0000  -0.0000

          k = 0.0156-0.2616 0.0000 ( 14519 PWs)   bands (ev):

   -21.1884  -9.6908  -9.2535  -7.7717   2.0941   3.0528   3.4020   3.9142

     occupation numbers 
     1.0000   1.0000   1.0000   1.0000  -0.0000  -0.0000  -0.0000  -0.0000

          k = 0.0156-0.2255 0.0000 ( 14515 PWs)   bands (ev):

   -21.4980  -9.6224  -8.8990  -7.4305   1.6692   2.6257   2.9616   3.4816

     occupation numbers 
     1.0000   1.0000   1.0000   1.0000  -0.0000  -0.0000  -0.0000  -0.0000

          k = 0.0156-0.1894 0.0000 ( 14523 PWs)   bands (ev):

   -21.7627  -9.9399  -8.1513  -7.0856   1.3069   2.2589   2.5865   3.1105

     occupation numbers 
     1.0000   1.0000   1.0000   1.0000  -0.0000  -0.0000  -0.0000  -0.0000

          k = 0.0156-0.1534 0.0000 ( 14533 PWs)   bands (ev):

   -21.9818 -10.2040  -7.4698  -6.7524   1.0074   1.9548   2.2765   2.8032

     occupation numbers 
     1.0000   1.0000   1.0000   1.0000  -0.0000  -0.0000  -0.0000  -0.0000

          k = 0.0156-0.1173 0.0000 ( 14565 PWs)   bands (ev):

   -22.1553 -10.4138  -6.8813  -6.4502   0.7708   1.7144   2.0320   2.5605

     occupation numbers 
     1.0000   1.0000   1.0000   1.0000  -0.0000  -0.0000  -0.0000  -0.0000

          k = 0.0156-0.0812 0.0000 ( 14595 PWs)   bands (ev):

   -22.2826 -10.5682  -6.4151  -6.2011   0.5974   1.5378   1.8525   2.3824

     occupation numbers 
     1.0000   1.0000   1.0000   1.0000  -0.0000  -0.0000  -0.0000  -0.0000

          k = 0.0156-0.0451 0.0000 ( 14595 PWs)   bands (ev):

   -22.3637 -10.6667  -6.1004  -6.0280   0.4871   1.4254   1.7383   2.2691

     occupation numbers 
     1.0000   1.0000   1.0000   1.0000  -0.0000  -0.0000  -0.0000  -0.0000

          k = 0.0156-0.0090 0.0000 ( 14585 PWs)   bands (ev):

   -22.3985 -10.7090  -5.9607  -5.9500   0.4398   1.3772   1.6894   2.2205

     occupation numbers 
     1.0000   1.0000   1.0000   1.0000  -0.0000  -0.0000  -0.0000  -0.0000

          k = 0.0469 0.0812 0.0000 ( 14581 PWs)   bands (ev):

   -22.2479 -10.5260  -6.5343  -6.2835   0.6447   1.5860   1.9015   2.4311

     occupation numbers 
     1.0000   1.0000   1.0000   1.0000  -0.0000  -0.0000  -0.0000  -0.0000

          k = 0.0469 0.1173 0.0000 ( 14573 PWs)   bands (ev):

   -22.1205 -10.3717  -6.9746  -6.5456   0.8182   1.7625   2.0809   2.6091

     occupation numbers 
     1.0000   1.0000   1.0000   1.0000  -0.0000  -0.0000  -0.0000  -0.0000

          k = 0.0469 0.1534 0.0000 ( 14546 PWs)   bands (ev):

   -21.9472 -10.1622  -7.5366  -6.8616   1.0548   2.0029   2.3255   2.8518

     occupation numbers 
     1.0000   1.0000   1.0000   1.0000  -0.0000  -0.0000  -0.0000  -0.0000

          k = 0.0469 0.1894 0.0000 ( 14514 PWs)   bands (ev):

   -21.7281  -9.8982  -8.1948  -7.2068   1.3544   2.3069   2.6354   3.1590

     occupation numbers 
     1.0000   1.0000   1.0000   1.0000  -0.0000  -0.0000  -0.0000  -0.0000

          k = 0.0469 0.2255 0.0000 ( 14514 PWs)   bands (ev):

   -21.4636  -9.5811  -8.9239  -7.5611   1.7168   2.6738   3.0106   3.5302

     occupation numbers 
     1.0000   1.0000   1.0000   1.0000  -0.0000  -0.0000  -0.0000  -0.0000

          k = 0.0469 0.2616 0.0000 ( 14513 PWs)   bands (ev):

   -21.1541  -9.7013  -9.2124  -7.9093   2.1418   3.1010   3.4510   3.9629

     occupation numbers 
     1.0000   1.0000   1.0000   1.0000  -0.0000  -0.0000  -0.0000  -0.0000

          k = 0.0469 0.2977 0.0000 ( 14500 PWs)   bands (ev):

   -20.8002 -10.5081  -8.7947  -8.2400   2.6289   3.5649   3.9566   4.1549

     occupation numbers 
     1.0000   1.0000   1.0000   1.0000  -0.0000  -0.0000  -0.0000  -0.0000

          k = 0.0469 0.3338 0.0000 ( 14500 PWs)   bands (ev):

   -20.4027 -11.3290  -8.5445  -8.3313   3.1774   3.2343   4.1966   4.5272

     occupation numbers 
     1.0000   1.0000   1.0000   1.0000  -0.0000  -0.0000  -0.0000  -0.0000

          k = 0.0469 0.3699 0.0000 ( 14503 PWs)   bands (ev):

   -19.9624 -12.1518  -8.8165  -7.8276   2.3749   3.7859   4.8002   5.1606

     occupation numbers 
     1.0000   1.0000   1.0000   1.0000  -0.0000  -0.0000  -0.0000  -0.0000

          k = 0.0469 0.4059 0.0000 ( 14453 PWs)   bands (ev):

   -19.4806 -12.9665  -9.0511  -7.2919   1.5105   4.4490   5.3049   5.4774

     occupation numbers 
     1.0000   1.0000   1.0000   1.0000  -0.0000  -0.0000  -0.0000  -0.0000

          k = 0.0469 0.4420 0.0000 ( 14439 PWs)   bands (ev):

   -18.9594 -13.7646  -9.2449  -6.7381   0.6764   5.0734   5.3312   6.2158

     occupation numbers 
     1.0000   1.0000   1.0000   1.0000  -0.0000  -0.0000  -0.0000  -0.0000

          k = 0.0469 0.4781 0.0000 ( 14458 PWs)   bands (ev):

   -18.4022 -14.5377  -9.3953  -6.1920  -0.0920   5.1174   6.0109   7.0106

     occupation numbers 
     1.0000   1.0000   1.0000   1.0000  -0.0000  -0.0000  -0.0000  -0.0000

          k = 0.0469 0.5142 0.0000 ( 14462 PWs)   bands (ev):

   -17.8179 -15.2734  -9.5005  -5.7027  -0.7392   5.0784   6.8480   7.8555

     occupation numbers 
     1.0000   1.0000   1.0000   1.0000  -0.0000  -0.0000  -0.0000  -0.0000

          k = 0.0469 0.5503 0.0000 ( 14472 PWs)   bands (ev):

   -17.2467 -15.9296  -9.5593  -5.3606  -1.1704   5.0536   7.7433   8.7317

     occupation numbers 
     1.0000   1.0000   1.0000   1.0000  -0.0000  -0.0000  -0.0000  -0.0000

          k = 0.0469 0.5864 0.0000 ( 14478 PWs)   bands (ev):

   -17.0392 -16.1541  -9.5711  -5.2828  -1.2661   5.0485   8.2073   8.6925

     occupation numbers 
     1.0000   1.0000   1.0000   1.0000  -0.0000  -0.0000  -0.0000  -0.0000

          k = 0.0469-0.5322 0.0000 ( 14472 PWs)   bands (ev):

   -17.5243 -15.6179  -9.5357  -5.5058  -0.9894   5.0637   7.2892   8.2924

     occupation numbers 
     1.0000   1.0000   1.0000   1.0000  -0.0000  -0.0000  -0.0000  -0.0000

          k = 0.0469-0.4962 0.0000 ( 14462 PWs)   bands (ev):

   -18.1124 -14.9114  -9.4536  -5.9358  -0.4356   5.0970   6.4211   7.4275

     occupation numbers 
     1.0000   1.0000   1.0000   1.0000  -0.0000  -0.0000  -0.0000  -0.0000

          k = 0.0469-0.4601 0.0000 ( 14449 PWs)   bands (ev):

   -18.6849 -14.1548  -9.3257  -6.4618   0.2812   5.1315   5.6256   6.6066

     occupation numbers 
     1.0000   1.0000   1.0000   1.0000  -0.0000  -0.0000  -0.0000  -0.0000

          k = 0.0469-0.4240 0.0000 ( 14457 PWs)   bands (ev):

   -19.2247 -13.3681  -9.1533  -7.0160   1.0877   4.7909   5.2795   5.8393

     occupation numbers 
     1.0000   1.0000   1.0000   1.0000  -0.0000  -0.0000  -0.0000  -0.0000

          k = 0.0469-0.3879 0.0000 ( 14464 PWs)   bands (ev):

   -19.7266 -12.5607  -8.9387  -7.5630   1.9407   4.1114   5.1307   5.3403

     occupation numbers 
     1.0000   1.0000   1.0000   1.0000  -0.0000  -0.0000  -0.0000  -0.0000

          k = 0.0469-0.3518 0.0000 ( 14492 PWs)   bands (ev):

   -20.1878 -11.7408  -8.6849  -8.0841   2.8087   3.4743   4.4871   4.8365

     occupation numbers 
     1.0000   1.0000   1.0000   1.0000  -0.0000  -0.0000  -0.0000  -0.0000

          k = 0.0469-0.3157 0.0000 ( 14512 PWs)   bands (ev):

   -20.6069 -10.9176  -8.5684  -8.3960   2.8955   3.6033   3.9731   4.2337

     occupation numbers 
     1.0000   1.0000   1.0000   1.0000  -0.0000  -0.0000  -0.0000  -0.0000

          k = 0.0469-0.2797 0.0000 ( 14511 PWs)   bands (ev):

   -20.9827 -10.1021  -9.0095  -8.0775   2.3776   3.3337   3.6956   4.1928

     occupation numbers 
     1.0000   1.0000   1.0000   1.0000  -0.0000  -0.0000  -0.0000  -0.0000

          k = 0.0469-0.2436 0.0000 ( 14520 PWs)   bands (ev):

   -21.3144  -9.4031  -9.3079  -7.7368   1.9215   2.8802   3.2226   3.7393

     occupation numbers 
     1.0000   1.0000   1.0000   1.0000  -0.0000  -0.0000  -0.0000  -0.0000

          k = 0.0469-0.2075 0.0000 ( 14501 PWs)   bands (ev):

   -21.6015  -9.7462  -8.5520  -7.3839   1.5277   2.4826   2.8148   3.3366

     occupation numbers 
     1.0000   1.0000   1.0000   1.0000  -0.0000  -0.0000  -0.0000  -0.0000

          k = 0.0469-0.1714 0.0000 ( 14523 PWs)   bands (ev):

   -21.8434 -10.0369  -7.8553  -7.0319   1.1967   2.1470   2.4723   2.9975

     occupation numbers 
     1.0000   1.0000   1.0000   1.0000  -0.0000  -0.0000  -0.0000  -0.0000

          k = 0.0469-0.1353 0.0000 ( 14567 PWs)   bands (ev):

   -22.0396 -10.2738  -7.2419  -6.6985   0.9286   1.8747   2.1950   2.7224

     occupation numbers 
     1.0000   1.0000   1.0000   1.0000  -0.0000  -0.0000  -0.0000  -0.0000

          k = 0.0469-0.0992 0.0000 ( 14589 PWs)   bands (ev):

   -22.1900 -10.4558  -6.7377  -6.4060   0.7236   1.6662   1.9829   2.5121

     occupation numbers 
     1.0000   1.0000   1.0000   1.0000  -0.0000  -0.0000  -0.0000  -0.0000

          k = 0.0469-0.0631 0.0000 ( 14587 PWs)   bands (ev):

   -22.2942 -10.5823  -6.3668  -6.1816   0.5817   1.5218   1.8361   2.3662

     occupation numbers 
     1.0000   1.0000   1.0000   1.0000  -0.0000  -0.0000  -0.0000  -0.0000

          k = 0.0469-0.0271 0.0000 ( 14595 PWs)   bands (ev):

   -22.3522 -10.6526  -6.1474  -6.0524   0.5028   1.4415   1.7546   2.2853

     occupation numbers 
     1.0000   1.0000   1.0000   1.0000  -0.0000  -0.0000  -0.0000  -0.0000

          k = 0.0781 0.1353 0.0000 ( 14527 PWs)   bands (ev):

   -21.9703 -10.1901  -7.4295  -6.8614   1.0233   1.9709   2.2929   2.8196

     occupation numbers 
     1.0000   1.0000   1.0000   1.0000  -0.0000  -0.0000  -0.0000  -0.0000

          k = 0.0781 0.1714 0.0000 ( 14509 PWs)   bands (ev):

   -21.7742  -9.9536  -7.9874  -7.2263   1.2915   2.2431   2.5702   3.0944

     occupation numbers 
     1.0000   1.0000   1.0000   1.0000  -0.0000  -0.0000  -0.0000  -0.0000

          k = 0.0781 0.2075 0.0000 ( 14515 PWs)   bands (ev):

   -21.5326  -9.6634  -8.6350  -7.6069   1.6226   2.5786   2.9127   3.4337

     occupation numbers 
     1.0000   1.0000   1.0000   1.0000  -0.0000  -0.0000  -0.0000  -0.0000

          k = 0.0781 0.2436 0.0000 ( 14517 PWs)   bands (ev):

   -21.2458  -9.3523  -9.3208  -7.9818   2.0165   2.9763   3.3205   3.8364

[...]

   -20.5273 -11.1272  -8.4764  -8.3811   3.0046   3.4529   4.0469   4.3478

     occupation numbers 
     1.0000   1.0000   1.0000   1.0000  -0.0000  -0.0000  -0.0000  -0.0000

          k = 0.2656-0.1534 0.0000 ( 14523 PWs)   bands (ev):

   -20.7432 -10.7155  -8.7286  -8.1569   2.7065   3.6065   4.0380   4.0407

     occupation numbers 
     1.0000   1.0000   1.0000   1.0000  -0.0000  -0.0000  -0.0000  -0.0000

          k = 0.2969 0.5142 0.0000 ( 14421 PWs)   bands (ev):

   -16.4798 -14.5871 -13.1913  -4.0723  -1.7881   7.7037   8.7294  10.3165

     occupation numbers 
     1.0000   1.0000   1.0000   1.0000  -0.0000  -0.0000  -0.0000  -0.0000

          k = 0.2969 0.5503 0.0000 ( 14417 PWs)   bands (ev):

   -15.9567 -14.9947 -13.4271  -3.5846  -2.2709   7.6253   9.4742  10.2200

     occupation numbers 
     1.0000   1.0000   1.0000   1.0000  -0.0000  -0.0000  -0.0000  -0.0000

          k = 0.2969 0.5864 0.0000 ( 14420 PWs)   bands (ev):

   -15.7592 -15.1711 -13.4724  -3.4320  -2.4223   7.6066   9.7919  10.0856

     occupation numbers 
     1.0000   1.0000   1.0000   1.0000  -0.0000  -0.0000  -0.0000  -0.0000

          k = 0.2969 0.6225 0.0000 ( 14417 PWs)   bands (ev):

   -16.2111 -14.7849 -13.3342  -3.8134  -2.0442   7.6598   9.1106  10.2855

     occupation numbers 
     1.0000   1.0000   1.0000   1.0000  -0.0000  -0.0000  -0.0000  -0.0000

          k = 0.2969 0.6585 0.0000 ( 14426 PWs)   bands (ev):

   -16.7511 -14.4122 -12.9995  -4.3429  -1.5206   7.7457   8.3427  10.0485

     occupation numbers 
     1.0000   1.0000   1.0000   1.0000  -0.0000  -0.0000  -0.0000  -0.0000

          k = 0.2969 0.6946 0.0000 ( 14455 PWs)   bands (ev):

   -17.2855 -14.1232 -12.4964  -4.8917  -0.9767   7.5787   7.7467   9.1889

     occupation numbers 
     1.0000   1.0000   1.0000   1.0000  -0.0000  -0.0000  -0.0000  -0.0000

          k = 0.2969 0.7307 0.0000 ( 14462 PWs)   bands (ev):

   -17.7965 -13.8717 -11.8964  -5.4306  -0.4359   6.8482   7.4981   8.3911

     occupation numbers 
     1.0000   1.0000   1.0000   1.0000  -0.0000  -0.0000  -0.0000  -0.0000

          k = 0.2969-0.3879 0.0000 ( 14461 PWs)   bands (ev):

   -18.2764 -13.6179 -11.2581  -5.9472   0.0963   6.1643   7.0248   7.6579

     occupation numbers 
     1.0000   1.0000   1.0000   1.0000  -0.0000  -0.0000  -0.0000  -0.0000

          k = 0.2969-0.3518 0.0000 ( 14480 PWs)   bands (ev):

   -18.7208 -13.3429 -10.6202  -6.4336   0.6192   5.5332   6.4790   6.9889

     occupation numbers 
     1.0000   1.0000   1.0000   1.0000  -0.0000  -0.0000  -0.0000  -0.0000

          k = 0.2969-0.3157 0.0000 ( 14488 PWs)   bands (ev):

   -19.1269 -13.0395 -10.0127  -6.8842   1.1335   4.9588   5.9424   6.3840

     occupation numbers 
     1.0000   1.0000   1.0000   1.0000  -0.0000  -0.0000  -0.0000  -0.0000

          k = 0.2969-0.2797 0.0000 ( 14494 PWs)   bands (ev):

   -19.4926 -12.7058  -9.4646  -7.2946   1.6390   4.4436   5.4455   5.8436

     occupation numbers 
     1.0000   1.0000   1.0000   1.0000  -0.0000  -0.0000  -0.0000  -0.0000

          k = 0.2969-0.2436 0.0000 ( 14479 PWs)   bands (ev):

   -19.8165 -12.3431  -9.0047  -7.6614   2.1335   3.9895   5.0010   5.3716

     occupation numbers 
     1.0000   1.0000   1.0000   1.0000  -0.0000  -0.0000  -0.0000  -0.0000

          k = 0.2969-0.2075 0.0000 ( 14475 PWs)   bands (ev):

   -20.0974 -11.9547  -8.6601  -7.9820   2.6108   3.5981   4.6149   4.9658

     occupation numbers 
     1.0000   1.0000   1.0000   1.0000  -0.0000  -0.0000  -0.0000  -0.0000

          k = 0.2969-0.1714 0.0000 ( 14479 PWs)   bands (ev):

   -20.3346 -11.5465  -8.4503  -8.2542   3.0592   3.2699   4.2927   4.6245

     occupation numbers 
     1.0000   1.0000   1.0000   1.0000  -0.0000  -0.0000  -0.0000  -0.0000

          k = 0.3281 0.5683 0.0000 ( 14422 PWs)   bands (ev):

   -15.4992 -15.2793 -13.6691  -3.0704  -2.7707   7.5470  10.0252  10.1693

     occupation numbers 
     1.0000   1.0000   1.0000   1.0039  -0.0039  -0.0000  -0.0000  -0.0000

          k = 0.3281 0.6044 0.0000 ( 14414 PWs)   bands (ev):

   -15.7155 -15.1240 -13.5850  -3.3220  -2.5240   7.5738   9.7865  10.2176

     occupation numbers 
     1.0000   1.0000   1.0000   1.0000  -0.0000  -0.0000  -0.0000  -0.0000

          k = 0.3281 0.6405 0.0000 ( 14417 PWs)   bands (ev):

   -16.2098 -14.8883 -13.2119  -3.8492  -2.0198   7.6964   9.1247  10.1192

     occupation numbers 
     1.0000   1.0000   1.0000   1.0000  -0.0000  -0.0000  -0.0000  -0.0000

          k = 0.3281 0.6766 0.0000 ( 14441 PWs)   bands (ev):

   -16.7269 -14.7072 -12.6733  -4.3775  -1.5270   7.8575   8.3873   9.5372

     occupation numbers 
     1.0000   1.0000   1.0000   1.0000  -0.0000  -0.0000  -0.0000  -0.0000

          k = 0.3281 0.7127 0.0000 ( 14455 PWs)   bands (ev):

   -17.2361 -14.5257 -12.0619  -4.8971  -1.0465   7.6536   7.9107   8.7640

     occupation numbers 
     1.0000   1.0000   1.0000   1.0000  -0.0000  -0.0000  -0.0000  -0.0000

          k = 0.3281 0.7488 0.0000 ( 14472 PWs)   bands (ev):

   -17.7227 -14.3197 -11.4270  -5.4001  -0.5756   6.9529   7.6718   7.9528

     occupation numbers 
     1.0000   1.0000   1.0000   1.0000  -0.0000  -0.0000  -0.0000  -0.0000

          k = 0.3281-0.3699 0.0000 ( 14474 PWs)   bands (ev):

   -18.1788 -14.0804 -10.7995  -5.8794  -0.1103   6.2980   7.1745   7.2043

     occupation numbers 
     1.0000   1.0000   1.0000   1.0000  -0.0000  -0.0000  -0.0000  -0.0000

          k = 0.3281-0.3338 0.0000 ( 14468 PWs)   bands (ev):

   -18.5997 -13.8054 -10.2062  -6.3291   0.3532   5.6955   6.4755   6.6761

     occupation numbers 
     1.0000   1.0000   1.0000   1.0000  -0.0000  -0.0000  -0.0000  -0.0000

          k = 0.3281-0.2977 0.0000 ( 14467 PWs)   bands (ev):

   -18.9825 -13.4948  -9.6739  -6.7439   0.8167   5.1502   5.8926   6.1633

     occupation numbers 
     1.0000   1.0000   1.0000   1.0000  -0.0000  -0.0000  -0.0000  -0.0000

          k = 0.3281-0.2616 0.0000 ( 14450 PWs)   bands (ev):

   -19.3250 -13.1504  -9.2308  -7.1197   1.2800   4.6667   5.4577   5.6930

     occupation numbers 
     1.0000   1.0000   1.0000   1.0000  -0.0000  -0.0000  -0.0000  -0.0000

          k = 0.3281-0.2255 0.0000 ( 14464 PWs)   bands (ev):

   -19.6256 -12.7754  -8.9033  -7.4530   1.7392   4.2474   5.1991   5.2755

     occupation numbers 
     1.0000   1.0000   1.0000   1.0000  -0.0000  -0.0000  -0.0000  -0.0000

          k = 0.3281-0.1894 0.0000 ( 14479 PWs)   bands (ev):

   -19.8834 -12.3746  -8.7110  -7.7412   2.1869   3.8917   4.9155   5.1353

     occupation numbers 
     1.0000   1.0000   1.0000   1.0000  -0.0000  -0.0000  -0.0000  -0.0000

          k = 0.3594 0.6225 0.0000 ( 14424 PWs)   bands (ev):

   -15.8589 -15.2232 -13.2772  -3.6031  -2.2675   7.6702   9.7627   9.8885

     occupation numbers 
     1.0000   1.0000   1.0000   1.0000  -0.0000  -0.0000  -0.0000  -0.0000

          k = 0.3594 0.6585 0.0000 ( 14437 PWs)   bands (ev):

   -16.2184 -15.2365 -12.7547  -4.0155  -1.9071   7.8712   9.1863   9.5095

     occupation numbers 
     1.0000   1.0000   1.0000   1.0000  -0.0000  -0.0000  -0.0000  -0.0000

          k = 0.3594 0.6946 0.0000 ( 14453 PWs)   bands (ev):

   -16.6769 -15.1480 -12.1564  -4.4611  -1.5300   8.1008   8.4750   8.7469

     occupation numbers 
     1.0000   1.0000   1.0000   1.0000  -0.0000  -0.0000  -0.0000  -0.0000

          k = 0.3594 0.7307 0.0000 ( 14462 PWs)   bands (ev):

   -17.1503 -14.9965 -11.5368  -4.9134  -1.1482   7.7514   7.9497   8.1791

     occupation numbers 
     1.0000   1.0000   1.0000   1.0000  -0.0000  -0.0000  -0.0000  -0.0000

          k = 0.3594 0.7668 0.0000 ( 14466 PWs)   bands (ev):

   -17.6085 -14.7957 -10.9266  -5.3589  -0.7605   7.0277   7.2161   7.9197

     occupation numbers 
     1.0000   1.0000   1.0000   1.0000  -0.0000  -0.0000  -0.0000  -0.0000

          k = 0.3594-0.3518 0.0000 ( 14462 PWs)   bands (ev):

   -18.0391 -14.5506 -10.3516  -5.7876  -0.3638   6.3371   6.5740   7.4473

     occupation numbers 
     1.0000   1.0000   1.0000   1.0000  -0.0000  -0.0000  -0.0000  -0.0000

          k = 0.3594-0.3157 0.0000 ( 14456 PWs)   bands (ev):

   -18.4357 -14.2644  -9.8385  -6.1916   0.0442   5.7388   6.0094   6.9341

     occupation numbers 
     1.0000   1.0000   1.0000   1.0000  -0.0000  -0.0000  -0.0000  -0.0000

          k = 0.3594-0.2797 0.0000 ( 14462 PWs)   bands (ev):

   -18.7947 -13.9401  -9.4148  -6.5648   0.4634   5.2660   5.5275   6.4444

     occupation numbers 
     1.0000   1.0000   1.0000   1.0000  -0.0000  -0.0000  -0.0000  -0.0000

          k = 0.3594-0.2436 0.0000 ( 14447 PWs)   bands (ev):

   -19.1137 -13.5808  -9.1069  -6.9019   0.8908   4.8968   5.1825   6.0002

     occupation numbers 
     1.0000   1.0000   1.0000   1.0000  -0.0000  -0.0000  -0.0000  -0.0000

          k = 0.3594-0.2075 0.0000 ( 14455 PWs)   bands (ev):

   -19.3911 -13.1907  -8.9342  -7.1991   1.3197   4.5567   5.0713   5.6092

     occupation numbers 
     1.0000   1.0000   1.0000   1.0000  -0.0000  -0.0000  -0.0000  -0.0000

          k = 0.3906 0.6766 0.0000 ( 14456 PWs)   bands (ev):

   -16.3240 -15.5229 -12.1871  -4.2769  -1.7302   8.1470   8.6947   9.2748

     occupation numbers 
     1.0000   1.0000   1.0000   1.0000  -0.0000  -0.0000  -0.0000  -0.0000

          k = 0.3906 0.7127 0.0000 ( 14442 PWs)   bands (ev):

   -16.6281 -15.5727 -11.5910  -4.5976  -1.5078   7.8695   8.4326   8.6759

     occupation numbers 
     1.0000   1.0000   1.0000   1.0000  -0.0000  -0.0000  -0.0000  -0.0000

          k = 0.3906 0.7488 0.0000 ( 14469 PWs)   bands (ev):

   -17.0367 -15.4565 -11.0025  -4.9507  -1.2483   7.0701   8.0079   8.5156

     occupation numbers 
     1.0000   1.0000   1.0000   1.0000  -0.0000  -0.0000  -0.0000  -0.0000

          k = 0.3906 0.7848 0.0000 ( 14473 PWs)   bands (ev):

   -17.4576 -15.2575 -10.4489  -5.3162  -0.9553   6.3468   7.3733   8.2233

     occupation numbers 
     1.0000   1.0000   1.0000   1.0000  -0.0000  -0.0000  -0.0000  -0.0000

          k = 0.3906-0.3338 0.0000 ( 14470 PWs)   bands (ev):

   -17.8593 -15.0031  -9.9570  -5.6787  -0.6308   5.7388   6.7865   7.7467

     occupation numbers 
     1.0000   1.0000   1.0000   1.0000  -0.0000  -0.0000  -0.0000  -0.0000

          k = 0.3906-0.2977 0.0000 ( 14462 PWs)   bands (ev):

   -18.2301 -14.7030  -9.5546  -6.0265  -0.2778   5.2808   6.2546   7.2492

     occupation numbers 
     1.0000   1.0000   1.0000   1.0000  -0.0000  -0.0000  -0.0000  -0.0000

          k = 0.3906-0.2616 0.0000 ( 14451 PWs)   bands (ev):

   -18.5647 -14.3629  -9.2679  -6.3507   0.0989   5.0015   5.7830   6.7827

     occupation numbers 
     1.0000   1.0000   1.0000   1.0000  -0.0000  -0.0000  -0.0000  -0.0000

          k = 0.3906-0.2255 0.0000 ( 14458 PWs)   bands (ev):

   -18.8599 -13.9871  -9.1164  -6.6442   0.4921   4.9130   5.3832   6.3641

     occupation numbers 
     1.0000   1.0000   1.0000   1.0000  -0.0000  -0.0000  -0.0000  -0.0000

          k = 0.4219 0.7307 0.0000 ( 14454 PWs)   bands (ev):

   -16.6735 -15.8497 -11.0278  -4.7865  -1.4394   7.0620   8.8454   8.9688

     occupation numbers 
     1.0000   1.0000   1.0000   1.0000  -0.0000  -0.0000  -0.0000  -0.0000

          k = 0.4219 0.7668 0.0000 ( 14458 PWs)   bands (ev):

   -16.9234 -15.8552 -10.4976  -5.0199  -1.3126   6.3289   8.2642   8.8780

     occupation numbers 
     1.0000   1.0000   1.0000   1.0000  -0.0000  -0.0000  -0.0000  -0.0000

          k = 0.4219 0.8029 0.0000 ( 14460 PWs)   bands (ev):

   -17.2790 -15.6818 -10.0284  -5.2839  -1.1247   5.7115   7.6617   8.5717

     occupation numbers 
     1.0000   1.0000   1.0000   1.0000  -0.0000  -0.0000  -0.0000  -0.0000

          k = 0.4219-0.3157 0.0000 ( 14470 PWs)   bands (ev):

   -17.6433 -15.4238  -9.6485  -5.5626  -0.8802   5.2452   7.1059   8.0983

     occupation numbers 
     1.0000   1.0000   1.0000   1.0000  -0.0000  -0.0000  -0.0000  -0.0000

          k = 0.4219-0.2797 0.0000 ( 14445 PWs)   bands (ev):

   -17.9852 -15.1112  -9.3842  -5.8411  -0.5873   4.9602   6.6043   7.6189

     occupation numbers 
     1.0000   1.0000   1.0000   1.0000  -0.0000  -0.0000  -0.0000  -0.0000

          k = 0.4219-0.2436 0.0000 ( 14466 PWs)   bands (ev):

   -18.2940 -14.7553  -9.2550  -6.1070  -0.2566   4.8777   6.1613   7.1760

     occupation numbers 
     1.0000   1.0000   1.0000   1.0000  -0.0000  -0.0000  -0.0000  -0.0000

          k = 0.4531 0.7848 0.0000 ( 14464 PWs)   bands (ev):

   -16.9068 -16.0871 -10.0523  -5.1282  -1.3138   5.7016   8.5383   8.6357

     occupation numbers 
     1.0000   1.0000   1.0000   1.0000  -0.0000  -0.0000  -0.0000  -0.0000

          k = 0.4531 0.8209 0.0000 ( 14474 PWs)   bands (ev):

   -17.1014 -16.0332  -9.6958  -5.2751  -1.2379   5.2252   8.0117   8.9670

     occupation numbers 
     1.0000   1.0000   1.0000   1.0000  -0.0000  -0.0000  -0.0000  -0.0000

          k = 0.4531-0.2977 0.0000 ( 14472 PWs)   bands (ev):

   -17.4007 -15.7980  -9.4546  -5.4520  -1.0843   4.9308   7.4875   8.4975

     occupation numbers 
     1.0000   1.0000   1.0000   1.0000  -0.0000  -0.0000  -0.0000  -0.0000

          k = 0.4531-0.2616 0.0000 ( 14452 PWs)   bands (ev):

   -17.7054 -15.4803  -9.3483  -5.6454  -0.8623   4.8400   7.0168   8.0388

     occupation numbers 
     1.0000   1.0000   1.0000   1.0000  -0.0000  -0.0000  -0.0000  -0.0000

          k = 0.4844 0.8390 0.0000 ( 14478 PWs)   bands (ev):

   -17.0235 -16.2094  -9.4781  -5.2996  -1.2730   4.9205   8.3800   8.4656

     occupation numbers 
     1.0000   1.0000   1.0000   1.0000  -0.0000  -0.0000  -0.0000  -0.0000

          k = 0.4844-0.2797 0.0000 ( 14450 PWs)   bands (ev):

   -17.1608 -16.0935  -9.3953  -5.3604  -1.2204   4.8197   7.9267   8.8887

     occupation numbers 
     1.0000   1.0000   1.0000   1.0000  -0.0000  -0.0000  -0.0000  -0.0000

     the Fermi energy is    -2.9206 ev

!    total energy              =     -24.12350114 Ry
     estimated scf accuracy    <          2.1E-14 Ry
     smearing contrib. (-TS)   =       0.00000037 Ry
     internal energy E=F+TS    =     -24.12350152 Ry

     The total energy is F=E-TS. E is the sum of the following terms:
     one-electron contribution =    -288.32864032 Ry
     hartree contribution      =     145.32528227 Ry
     xc contribution           =      -8.56928401 Ry
     ewald contribution        =     127.44914053 Ry

     convergence has been achieved in   9 iterations


     Computing stress (Cartesian axis) and pressure

          total   stress  (Ry/bohr**3)                   (kbar)     P=       -0.01
  -0.00000005   0.00000000  -0.00000000           -0.01        0.00       -0.00
  -0.00000000  -0.00000005  -0.00000000           -0.00       -0.01       -0.00
   0.00000000   0.00000000  -0.00000003            0.00        0.00       -0.00

     kinetic stress (kbar)   1884.21      0.00      0.00
                                0.00   1884.21      0.00
                                0.00      0.00   2064.00

     local   stress (kbar) -51279.39     -0.00      0.00
                               -0.00 -51279.39     -0.00
                                0.00     -0.00  51866.28

     nonloc. stress (kbar)   -222.99      0.00      0.00
                                0.00   -222.99      0.00
                                0.00      0.00   -186.29

     hartree stress (kbar)  24780.72     -0.00     -0.00
                               -0.00  24780.72     -0.00
                               -0.00     -0.00 -24641.91

     exc-cor stress (kbar)   -145.95      0.00      0.00
                                0.00   -145.95      0.00
                                0.00      0.00   -145.95

     corecor stress (kbar)   -283.65     -0.00      0.00
                               -0.00   -283.65     -0.00
                                0.00     -0.00   -276.26

     ewald   stress (kbar)  25267.04     -0.00      0.00
                               -0.00  25267.04      0.00
                                0.00      0.00 -28679.86

     hubbard stress (kbar)      0.00      0.00      0.00
                                0.00      0.00      0.00
                                0.00      0.00      0.00

     DFT-D   stress (kbar)      0.00      0.00      0.00
                                0.00      0.00      0.00
                                0.00      0.00      0.00

     XDM     stress (kbar)      0.00      0.00      0.00
                                0.00      0.00      0.00
                                0.00      0.00      0.00

     dft-nl  stress (kbar)      0.00      0.00      0.00
                                0.00      0.00      0.00
                                0.00      0.00      0.00

     TS-vdW  stress (kbar)      0.00      0.00      0.00
                                0.00      0.00      0.00
                                0.00      0.00      0.00


                                0.00      0.00      0.00
                                0.00      0.00      0.00


                                0.00      0.00      0.00


     Writing all to output data dir ./graphene.save/
 
     init_run     :      0.28s CPU      0.43s WALL (       1 calls)
     electrons    :      5.06s CPU      5.15s WALL (       1 calls)
     stress       :      0.19s CPU      0.20s WALL (       1 calls)

     Called by init_run:
     wfcinit      :      0.10s CPU      0.12s WALL (       1 calls)
     wfcinit:atom :      0.00s CPU      0.00s WALL (       1 calls)
     wfcinit:wfcr :      0.09s CPU      0.11s WALL (       1 calls)
     potinit      :      0.07s CPU      0.08s WALL (       1 calls)
     hinit0       :      0.06s CPU      0.15s WALL (       1 calls)

     Called by electrons:
     c_bands      :      3.62s CPU      3.64s WALL (       9 calls)
     sum_band     :      0.83s CPU      0.84s WALL (       9 calls)
     v_of_rho     :      0.21s CPU      0.22s WALL (      10 calls)
     v_h          :      0.07s CPU      0.07s WALL (      10 calls)
     v_xc         :      0.14s CPU      0.16s WALL (      11 calls)
     mix_rho      :      0.15s CPU      0.18s WALL (       9 calls)

     Called by c_bands:
     init_us_2    :      0.04s CPU      0.04s WALL (      19 calls)
     init_us_2:cp :      0.04s CPU      0.04s WALL (      19 calls)
     cegterg      :      2.76s CPU      2.77s WALL (       9 calls)

     Called by sum_band:
     sum_band:wei :      0.01s CPU      0.01s WALL (       9 calls)
     sum_band:loo :      0.52s CPU      0.52s WALL (       9 calls)
     sum_band:buf :      0.00s CPU      0.00s WALL (       9 calls)
     sum_band:ini :      0.02s CPU      0.02s WALL (       9 calls)

     Called by *egterg:
     cdiaghg      :      0.01s CPU      0.03s WALL (      50 calls)
     cegterg:over :      0.10s CPU      0.10s WALL (      41 calls)
     cegterg:upda :      0.05s CPU      0.05s WALL (      41 calls)
     cegterg:last :      0.06s CPU      0.06s WALL (      26 calls)
     h_psi        :      2.58s CPU      2.60s WALL (      51 calls)
     g_psi        :      0.01s CPU      0.01s WALL (      41 calls)

     Called by h_psi:
     h_psi:calbec :      0.05s CPU      0.05s WALL (      51 calls)
     vloc_psi     :      2.46s CPU      2.47s WALL (      51 calls)
     add_vuspsi   :      0.05s CPU      0.05s WALL (      51 calls)

     General routines
     calbec       :      0.05s CPU      0.05s WALL (      52 calls)
     fft          :      0.10s CPU      0.17s WALL (      34 calls)
     ffts         :      0.04s CPU      0.04s WALL (       9 calls)
     fftw         :      2.04s CPU      2.05s WALL (     562 calls)
 
     Parallel routines
 
     PWSCF        :      5.79s CPU      6.37s WALL

 
   This run was terminated on:  16:41:16   9Jun2022            

=------------------------------------------------------------------------------=
   JOB DONE.
=------------------------------------------------------------------------------=
TACC:  Shutdown complete. Exiting. 
