 BEGIN_INFO
   #
   # this is a Band-XCRYSDEN-Structure-File
   # aimed at Visualization of Fermi Surface
   #
   # Case:   copper_fs.bxsf
   #
 Fermi Energy:         13.3641
 END_INFO
 BEGIN_BLOCK_BANDGRID_3D
 band_energies
 BANDGRID_3D_BANDS
    1
   31   31   31
  0.000000  0.000000  0.000000
 -1.000000 -1.000000  1.000000
  1.000000  1.000000  1.000000
 -1.000000  1.000000 -1.000000
BAND:   6
   11.0561   11.0524   11.0425   11.0301   11.0215   11.0263
   11.0543   11.1110   11.1930   11.2912   11.3946   11.4933
   11.5791   11.6453   11.9709   12.1756   11.9709   11.6453
   11.5791   11.4933   11.3946   11.2912   11.1930   11.1110
   11.0543   11.0263   11.0215   11.0301   11.0425   11.0524
   11.0561   11.0524   11.0627   11.0661   11.0655   11.0662
   11.0762   11.1042   11.1564   11.2316   11.3227   11.4197
   11.5128   11.6293   11.8459   12.1726   12.4323   12.3777
   12.0784   11.8174   11.6599   11.5371   11.4228   11.3150
   11.2197   11.1446   11.0950   11.0695   11.0608   11.0596
   11.0584   11.0524   11.0425   11.0661   11.0823   11.0930
   11.1028   11.1182   11.1474   11.1966   11.2668   11.3522
   11.4440   11.5323   11.7664   12.0811   12.4784   12.8297
   12.9004   12.6423   12.2796   11.9888   11.7824   11.6212
   11.4827   11.3611   11.2587   11.1799   11.1264   11.0940
   11.0746   11.0596   11.0425   11.0301   11.0655   11.0930
   11.1140   11.1320   11.1527   11.1834   11.2308   11.2971
   11.3782   11.4659   11.6067   11.9071   12.2930   12.7627
   13.2212   13.4389   13.2528   12.8405   12.4361   12.1231
   11.8876   11.6990   11.5391   11.4021   11.2887   11.2008
   11.1378   11.0940   11.0608   11.0301   11.0215   11.0662
   11.1028   11.1320   11.1567   11.1815   11.2132   11.2588
   11.3217   11.3995   11.4843   11.6786   12.0312   12.4754
   13.0120   13.5760   13.9644   13.9008   13.4707   12.9717
   12.5482   12.2207   11.9648   11.7551   11.5769   11.4251
   11.2996   11.2008   11.1264   11.0695   11.0215   11.0263
   11.0762   11.1182   11.1527   11.1815   11.2084   11.2395
   11.2819   11.3409   11.4154   11.4983   11.7354   12.1316
   12.6257   13.2215   13.8783   14.4439   14.5710   14.1630
   13.5842   13.0524   12.6221   12.2838   12.0115   11.7841
   11.5901   11.4251   11.2887   11.1799   11.0950   11.0263
   11.0543   11.1042   11.1474   11.1834   11.2132   11.2395
   11.2672   11.3036   11.3560   11.4261   11.5071   11.7719
   12.2058   12.7440   13.3908   14.1227   14.8443   15.2313
   14.9133   14.2706   13.6358   13.0977   12.6639   12.3147
   12.0270   11.7841   11.5769   11.4021   11.2587   11.1446
   11.0543   11.1110   11.1564   11.1966   11.2308   11.2588
   11.2819   11.3036   11.3304   11.3714   11.4329   11.5107
   11.7858   12.2537   12.8321   13.5233   14.3127   15.1486
   15.8182   15.7141   15.0309   14.3011   13.6560   13.1179
   12.6774   12.3147   12.0115   11.7551   11.5391   11.3611
   11.2197   11.1110   11.1930   11.2316   11.2668   11.2971
   11.3217   11.3409   11.3560   11.3714   11.3954   11.4403
   11.5099   11.7766   12.2776   12.8948   13.6250   14.4566
   15.3630   16.2482   16.5396   15.8659   15.0512   14.3055
   13.6611   13.1179   12.6639   12.2838   11.9648   11.6990
   11.4827   11.3150   11.1930   11.2912   11.3227   11.3522
   11.3782   11.3995   11.4154   11.4261   11.4329   11.4403
   11.4594   11.5082   11.7465   12.2845   12.9410   13.7045
   14.5640   15.5044   16.4911   17.2740   16.7760   15.8873
   15.0508   14.3055   13.6560   13.0977   12.6221   12.2207
   11.8876   11.6212   11.4228   11.2912   11.3946   11.4197
   11.4440   11.4659   11.4843   11.4983   11.5071   11.5107
   11.5099   11.5082   11.5195   11.7068   12.2953   12.9886
   13.7746   14.6434   15.5836   16.5779   17.5778   17.7584
   16.8052   15.8873   15.0512   14.3011   13.6358   13.0524
   12.5482   12.1231   11.7824   11.5371   11.3946   11.4933
   11.5128   11.5323   11.6067   11.6786   11.7354   11.7719
   11.7858   11.7766   11.7465   11.7068   11.8229   12.3808
   13.0762   13.8549   14.7012   15.5988   16.5216   17.4198
   18.1942   17.7584   16.7760   15.8659   15.0309   14.2706
   13.5842   12.9717   12.4361   11.9888   11.6599   11.4933
   11.5791   11.6293   11.7664   11.9071   12.0312   12.1316
   12.2058   12.2537   12.2776   12.2845   12.2953   12.3808
   12.7025   13.2742   13.9752   14.7423   15.5350   16.3019
   16.9640   17.4198   17.5778   17.2740   16.5396   15.7141
   14.9133   14.1630   13.4707   12.8405   12.2796   11.8174
   11.5791   11.6453   11.8459   12.0811   12.2930   12.4754
   12.6257   12.7440   12.8321   12.8948   12.9410   12.9886
   13.0762   13.2742   13.6459   14.1692   14.7699   15.3739
   15.9076   16.3019   16.5216   16.5779   16.4911   16.2482
   15.8182   15.2313   14.5710   13.9008   13.2528   12.6423
   12.0784   11.6453   11.9709   12.1726   12.4784   12.7627
   13.0120   13.2215   13.3908   13.5233   13.6250   13.7045
   13.7746   13.8549   13.9752   14.1692   14.4500   14.7857
   15.1137   15.3739   15.5350   15.5988   15.5836   15.5044
   15.3630   15.1486   14.8443   14.4439   13.9644   13.4389
   12.9004   12.3777   11.9709   12.1756   12.4323   12.8297
   13.2212   13.5760   13.8783   14.1227   14.3127   14.4566
   14.5640   14.6434   14.7012   14.7423   14.7699   14.7857
   14.7909   14.7857   14.7699   14.7423   14.7012   14.6434
   14.5640   14.4566   14.3127   14.1227   13.8783   13.5760
   13.2212   12.8297   12.4323   12.1756   11.9709   12.3777
   12.9004   13.4389   13.9644   14.4439   14.8443   15.1486
   15.3630   15.5044   15.5836   15.5988   15.5350   15.3739
   15.1137   14.7857   14.4500   14.1692   13.9752   13.8549
   13.7746   13.7045   13.6250   13.5233   13.3908   13.2215
   13.0120   12.7627   12.4784   12.1726   11.9709   11.6453
   12.0784   12.6423   13.2528   13.9008   14.5710   15.2313
   15.8182   16.2482   16.4911   16.5779   16.5216   16.3019
   15.9076   15.3739   14.7699   14.1692   13.6459   13.2742
   13.0762   12.9886   12.9410   12.8948   12.8321   12.7440
   12.6257   12.4754   12.2930   12.0811   11.8459   11.6453
   11.5791   11.8174   12.2796   12.8405   13.4707   14.1630
   14.9133   15.7141   16.5396   17.2740   17.5778   17.4198
   16.9640   16.3019   15.5350   14.7423   13.9752   13.2742
   12.7025   12.3808   12.2953   12.2845   12.2776   12.2537
   12.2058   12.1316   12.0312   11.9071   11.7664   11.6293
   11.5791   11.4933   11.6599   11.9888   12.4361   12.9717
   13.5842   14.2706   15.0309   15.8659   16.7760   17.7584
   18.1942   17.4198   16.5216   15.5988   14.7012   13.8549
   13.0762   12.3808   11.8229   11.7068   11.7465   11.7766
   11.7858   11.7719   11.7354   11.6786   11.6067   11.5323
   11.5128   11.4933   11.3946   11.5371   11.7824   12.1231
   12.5482   13.0524   13.6358   14.3011   15.0512   15.8873
   16.8052   17.7584   17.5778   16.5779   15.5836   14.6434
   13.7746   12.9886   12.2953   11.7068   11.5195   11.5082
   11.5099   11.5107   11.5071   11.4983   11.4843   11.4659
   11.4440   11.4197   11.3946   11.2912   11.4228   11.6212
   11.8876   12.2207   12.6221   13.0977   13.6560   14.3055
   15.0508   15.8873   16.7760   17.2740   16.4911   15.5044
   14.5640   13.7045   12.9410   12.2845   11.7465   11.5082
   11.4594   11.4403   11.4329   11.4261   11.4154   11.3995
   11.3782   11.3522   11.3227   11.2912   11.1930   11.3150
   11.4827   11.6990   11.9648   12.2838   12.6639   13.1179
   13.6611   14.3055   15.0512   15.8659   16.5396   16.2482
   15.3630   14.4566   13.6250   12.8948   12.2776   11.7766
   11.5099   11.4403   11.3954   11.3714   11.3560   11.3409
   11.3217   11.2971   11.2668   11.2316   11.1930   11.1110
   11.2197   11.3611   11.5391   11.7551   12.0115   12.3147
   12.6774   13.1179   13.6560   14.3011   15.0309   15.7141
   15.8182   15.1486   14.3127   13.5233   12.8321   12.2537
   11.7858   11.5107   11.4329   11.3714   11.3304   11.3036
   11.2819   11.2588   11.2308   11.1966   11.1564   11.1110
   11.0543   11.1446   11.2587   11.4021   11.5769   11.7841
   12.0270   12.3147   12.6639   13.0977   13.6358   14.2706
   14.9133   15.2313   14.8443   14.1227   13.3908   12.7440
   12.2058   11.7719   11.5071   11.4261   11.3560   11.3036
   11.2672   11.2395   11.2132   11.1834   11.1474   11.1042
   11.0543   11.0263   11.0950   11.1799   11.2887   11.4251
   11.5901   11.7841   12.0115   12.2838   12.6221   13.0524
   13.5842   14.1630   14.5710   14.4439   13.8783   13.2215
   12.6257   12.1316   11.7354   11.4983   11.4154   11.3409
   11.2819   11.2395   11.2084   11.1815   11.1527   11.1182
   11.0762   11.0263   11.0215   11.0695   11.1264   11.2008
   11.2996   11.4251   11.5769   11.7551   11.9648   12.2207
   12.5482   12.9717   13.4707   13.9008   13.9644   13.5760
   13.0120   12.4754   12.0312   11.6786   11.4843   11.3995
   11.3217   11.2588   11.2132   11.1815   11.1567   11.1320
   11.1028   11.0662   11.0215   11.0301   11.0608   11.0940
   11.1378   11.2008   11.2887   11.4021   11.5391   11.6990
   11.8876   12.1231   12.4361   12.8405   13.2528   13.4389
   13.2212   12.7627   12.2930   11.9071   11.6067   11.4659
   11.3782   11.2971   11.2308   11.1834   11.1527   11.1320
   11.1140   11.0930   11.0655   11.0301   11.0425   11.0596
   11.0746   11.0940   11.1264   11.1799   11.2587   11.3611
   11.4827   11.6212   11.7824   11.9888   12.2796   12.6423
   12.9004   12.8297   12.4784   12.0811   11.7664   11.5323
   11.4440   11.3522   11.2668   11.1966   11.1474   11.1182
   11.1028   11.0930   11.0823   11.0661   11.0425   11.0524
   11.0584   11.0596   11.0608   11.0695   11.0950   11.1446
   11.2197   11.3150   11.4228   11.5371   11.6599   11.8174
   12.0784   12.3777   12.4323   12.1726   11.8459   11.6293
   11.5128   11.4197   11.3227   11.2316   11.1564   11.1042
   11.0762   11.0662   11.0655   11.0661   11.0627   11.0524
   11.0561   11.0524   11.0425   11.0301   11.0215   11.0263
   11.0543   11.1110   11.1930   11.2912   11.3946   11.4933
   11.5791   11.6453   11.9709   12.1756   11.9709   11.6453
   11.5791   11.4933   11.3946   11.2912   11.1930   11.1110
   11.0543   11.0263   11.0215   11.0301   11.0425   11.0524
   11.0561   11.0524   11.0627   11.0661   11.0655   11.0662
   11.0762   11.1042   11.1564   11.2316   11.3227   11.4197
   11.5128   11.6293   11.8459   12.1726   12.4323   12.3777
   12.0784   11.8174   11.6599   11.5371   11.4228   11.3150
   11.2197   11.1446   11.0950   11.0695   11.0608   11.0596
   11.0584   11.0524   11.0627   11.0524   11.0584   11.0596
   11.0608   11.0695   11.0950   11.1446   11.2197   11.3150
   11.4228   11.5371   11.6599   11.8174   12.0784   12.3777
   12.4323   12.1726   11.8459   11.6293   11.5128   11.4197
   11.3227   11.2316   11.1564   11.1042   11.0762   11.0662
   11.0655   11.0661   11.0627   11.0661   11.0584   11.0661
   11.0752   11.0835   11.0970   11.1240   11.1725   11.2456
   11.3403   11.4514   11.5773   11.7292   11.9425   12.2587
   12.6164   12.7874   12.6164   12.2587   11.9425   11.7292
   11.5773   11.4514   11.3403   11.2456   11.1725   11.1240
   11.0970   11.0835   11.0752   11.0661   11.0655   11.0596
   11.0752   11.0930   11.1091   11.1278   11.1566   11.2035
   11.2734   11.3658   11.4789   11.6184   11.8105   12.0927
   12.4813   12.9217   13.2242   13.1649   12.8069   12.3994
   12.0763   11.8417   11.6613   11.5113   11.3834   11.2779
   11.1976   11.1424   11.1071   11.0835   11.0655   11.0662
   11.0608   11.0835   11.1091   11.1320   11.1553   11.1856
   11.2307   11.2972   11.3869   11.5016   11.6569   11.8932
   12.2380   12.6926   13.2167   13.6607   13.7517   13.4251
   12.9473   12.5166   12.1842   11.9314   11.7290   11.5594
   11.4158   11.2981   11.2075   11.1424   11.0970   11.0662
   11.0762   11.0695   11.0970   11.1278   11.1553   11.1815
   11.2118   11.2540   11.3160   11.4021   11.5173   11.6883
   11.9666   12.3649   12.8773   13.4773   14.0586   14.3452
   14.0988   13.5698   13.0383   12.6006   12.2605   11.9923
   11.7718   11.5853   11.4275   11.2981   11.1976   11.1240
   11.0762   11.1042   11.0950   11.1240   11.1566   11.1856
   11.2118   11.2395   11.2762   11.3311   11.4114   11.5251
   11.7090   12.0239   12.4680   13.0307   13.6952   14.3943
   14.9050   14.8174   14.2619   13.6376   13.0925   12.6537
   12.3055   12.0228   11.7863   11.5853   11.4158   11.2779
   11.1725   11.1042   11.1564   11.1446   11.1725   11.2035
   11.2307   11.2540   11.2762   11.3036   11.3465   11.4163
   11.5245   11.7160   12.0615   12.5458   13.1530   13.8704
   14.6590   15.3794   15.5604   15.0221   14.3145   13.6648
   13.1206   12.6792   12.3203   12.0228   11.7718   11.5594
   11.3834   11.2456   11.1564   11.2316   11.2197   11.2456
   11.2734   11.2972   11.3160   11.3311   11.3465   11.3714
   11.4215   11.5168   11.7084   12.0790   12.6004   13.2477
   14.0082   14.8584   15.7291   16.2733   15.8488   15.0708
   14.3233   13.6735   13.1293   12.6792   12.3055   11.9923
   11.7290   11.5113   11.3403   11.2316   11.3227   11.3150
   11.3403   11.3658   11.3869   11.4021   11.4114   11.4163
   11.4215   11.4403   11.5053   11.6873   12.0802   12.6378
   13.3220   14.1164   15.0045   15.9555   16.8246   16.7363
   15.9078   15.0722   14.3228   13.6735   13.1206   12.6537
   12.2605   11.9314   11.6613   11.4514   11.3227   11.4197
   11.4228   11.4514   11.4789   11.5016   11.5173   11.5251
   11.5245   11.5168   11.5053   11.5082   11.6581   12.0783
   12.6725   13.3879   14.2044   15.1079   16.0823   17.0871
   17.6440   16.8256   15.9111   15.0722   14.3233   13.6648
   13.0925   12.6006   12.1842   11.8417   11.5773   11.4197
   11.5128   11.5371   11.5773   11.6184   11.6569   11.6883
   11.7090   11.7160   11.7084   11.6873   11.6581   11.7068
   12.1254   12.7387   13.4668   14.2837   15.1737   16.1201
   17.0957   18.0395   17.8181   16.8256   15.9078   15.0708
   14.3145   13.6376   13.0383   12.5166   12.0763   11.7292
   11.5128   11.6293   11.6599   11.7292   11.8105   11.8932
   11.9666   12.0239   12.0615   12.0790   12.0802   12.0783
   12.1254   12.3808   12.9106   13.5951   14.3687   15.1995
   16.0555   16.8858   17.5996   18.0395   17.6440   16.7363
   15.8488   15.0221   14.2619   13.5698   12.9473   12.3994
   11.9425   11.6293   11.8459   11.8174   11.9425   12.0927
   12.2380   12.3649   12.4680   12.5458   12.6004   12.6378
   12.6725   12.7387   12.9106   13.2742   13.8201   14.4755
   15.1766   15.8629   16.4597   16.8858   17.0957   17.0871
   16.8246   16.2733   15.5604   14.8174   14.0988   13.4251
   12.8069   12.2587   11.8459   12.1726   12.0784   12.2587
   12.4813   12.6926   12.8773   13.0307   13.1530   13.2477
   13.3220   13.3879   13.4668   13.5951   13.8201   14.1692
   14.6160   15.0953   15.5324   15.8629   16.0555   16.1201
   16.0823   15.9555   15.7291   15.3794   14.9050   14.3452
   13.7517   13.1649   12.6164   12.1726   12.4323   12.3777
   12.6164   12.9217   13.2167   13.4773   13.6952   13.8704
   14.0082   14.1164   14.2044   14.2837   14.3687   14.4755
   14.6160   14.7857   14.9575   15.0953   15.1766   15.1995
   15.1737   15.1079   15.0045   14.8584   14.6590   14.3943
   14.0586   13.6607   13.2242   12.7874   12.4323   12.3777
   12.4323   12.7874   13.2242   13.6607   14.0586   14.3943
   14.6590   14.8584   15.0045   15.1079   15.1737   15.1995
   15.1766   15.0953   14.9575   14.7857   14.6160   14.4755
   14.3687   14.2837   14.2044   14.1164   14.0082   13.8704
   13.6952   13.4773   13.2167   12.9217   12.6164   12.3777
   12.0784   12.1726   12.6164   13.1649   13.7517   14.3452
   14.9050   15.3794   15.7291   15.9555   16.0823   16.1201
   16.0555   15.8629   15.5324   15.0953   14.6160   14.1692
   13.8201   13.5951   13.4668   13.3879   13.3220   13.2477
   13.1530   13.0307   12.8773   12.6926   12.4813   12.2587
   12.0784   11.8174   11.8459   12.2587   12.8069   13.4251
   14.0988   14.8174   15.5604   16.2733   16.8246   17.0871
   17.0957   16.8858   16.4597   15.8629   15.1766   14.4755
   13.8201   13.2742   12.9106   12.7387   12.6725   12.6378
   12.6004   12.5458   12.4680   12.3649   12.2380   12.0927
   11.9425   11.8174   11.6599   11.6293   11.9425   12.3994
   12.9473   13.5698   14.2619   15.0221   15.8488   16.7363
   17.6440   18.0395   17.5996   16.8858   16.0555   15.1995
   14.3687   13.5951   12.9106   12.3808   12.1254   12.0783
   12.0802   12.0790   12.0615   12.0239   11.9666   11.8932
   11.8105   11.7292   11.6599   11.5371   11.5128   11.7292
   12.0763   12.5166   13.0383   13.6376   14.3145   15.0708
   15.9078   16.8256   17.8181   18.0395   17.0957   16.1201
   15.1737   14.2837   13.4668   12.7387   12.1254   11.7068
   11.6581   11.6873   11.7084   11.7160   11.7090   11.6883
   11.6569   11.6184   11.5773   11.5371   11.4228   11.4197
   11.5773   11.8417   12.1842   12.6006   13.0925   13.6648
   14.3233   15.0722   15.9111   16.8256   17.6440   17.0871
   16.0823   15.1079   14.2044   13.3879   12.6725   12.0783
   11.6581   11.5082   11.5053   11.5168   11.5245   11.5251
   11.5173   11.5016   11.4789   11.4514   11.4228   11.3150
   11.3227   11.4514   11.6613   11.9314   12.2605   12.6537
   13.1206   13.6735   14.3228   15.0722   15.9078   16.7363
   16.8246   15.9555   15.0045   14.1164   13.3220   12.6378
   12.0802   11.6873   11.5053   11.4403   11.4215   11.4163
   11.4114   11.4021   11.3869   11.3658   11.3403   11.3150
   11.2197   11.2316   11.3403   11.5113   11.7290   11.9923
   12.3055   12.6792   13.1293   13.6735   14.3233   15.0708
   15.8488   16.2733   15.7291   14.8584   14.0082   13.2477
   12.6004   12.0790   11.7084   11.5168   11.4215   11.3714
   11.3465   11.3311   11.3160   11.2972   11.2734   11.2456
   11.2197   11.1446   11.1564   11.2456   11.3834   11.5594
   11.7718   12.0228   12.3203   12.6792   13.1206   13.6648
   14.3145   15.0221   15.5604   15.3794   14.6590   13.8704
   13.1530   12.5458   12.0615   11.7160   11.5245   11.4163
   11.3465   11.3036   11.2762   11.2540   11.2307   11.2035
   11.1725   11.1446   11.0950   11.1042   11.1725   11.2779
   11.4158   11.5853   11.7863   12.0228   12.3055   12.6537
   13.0925   13.6376   14.2619   14.8174   14.9050   14.3943
   13.6952   13.0307   12.4680   12.0239   11.7090   11.5251
   11.4114   11.3311   11.2762   11.2395   11.2118   11.1856
   11.1566   11.1240   11.0950   11.0695   11.0762   11.1240
   11.1976   11.2981   11.4275   11.5853   11.7718   11.9923
   12.2605   12.6006   13.0383   13.5698   14.0988   14.3452
   14.0586   13.4773   12.8773   12.3649   11.9666   11.6883
   11.5173   11.4021   11.3160   11.2540   11.2118   11.1815
   11.1553   11.1278   11.0970   11.0695   11.0608   11.0662
   11.0970   11.1424   11.2075   11.2981   11.4158   11.5594
   11.7290   11.9314   12.1842   12.5166   12.9473   13.4251
   13.7517   13.6607   13.2167   12.6926   12.2380   11.8932
   11.6569   11.5016   11.3869   11.2972   11.2307   11.1856
   11.1553   11.1320   11.1091   11.0835   11.0608   11.0596
   11.0655   11.0835   11.1071   11.1424   11.1976   11.2779
   11.3834   11.5113   11.6613   11.8417   12.0763   12.3994
   12.8069   13.1649   13.2242   12.9217   12.4813   12.0927
   11.8105   11.6184   11.4789   11.3658   11.2734   11.2035
   11.1566   11.1278   11.1091   11.0930   11.0752   11.0596
   11.0584   11.0661   11.0752   11.0835   11.0970   11.1240
   11.1725   11.2456   11.3403   11.4514   11.5773   11.7292
   11.9425   12.2587   12.6164   12.7874   12.6164   12.2587
   11.9425   11.7292   11.5773   11.4514   11.3403   11.2456
   11.1725   11.1240   11.0970   11.0835   11.0752   11.0661
   11.0584   11.0524   11.0627   11.0661   11.0655   11.0662
   11.0762   11.1042   11.1564   11.2316   11.3227   11.4197
   11.5128   11.6293   11.8459   12.1726   12.4323   12.3777
   12.0784   11.8174   11.6599   11.5371   11.4228   11.3150
   11.2197   11.1446   11.0950   11.0695   11.0608   11.0596
   11.0584   11.0524   11.0425   11.0661   11.0823   11.0930
   11.1028   11.1182   11.1474   11.1966   11.2668   11.3522
   11.4440   11.5323   11.7664   12.0811   12.4784   12.8297
   12.9004   12.6423   12.2796   11.9888   11.7824   11.6212
   11.4827   11.3611   11.2587   11.1799   11.1264   11.0940
   11.0746   11.0596   11.0425   11.0661   11.0584   11.0661
   11.0752   11.0835   11.0970   11.1240   11.1725   11.2456
   11.3403   11.4514   11.5773   11.7292   11.9425   12.2587
   12.6164   12.7874   12.6164   12.2587   11.9425   11.7292
   11.5773   11.4514   11.3403   11.2456   11.1725   11.1240
   11.0970   11.0835   11.0752   11.0661   11.0823   11.0661
   11.0425   11.0596   11.0746   11.0940   11.1264   11.1799
   11.2587   11.3611   11.4827   11.6212   11.7824   11.9888
   12.2796   12.6423   12.9004   12.8297   12.4784   12.0811
   11.7664   11.5323   11.4440   11.3522   11.2668   11.1966
   11.1474   11.1182   11.1028   11.0930   11.0823   11.0930
   11.0752   11.0596   11.0655   11.0835   11.1071   11.1424
   11.1976   11.2779   11.3834   11.5113   11.6613   11.8417
   12.0763   12.3994   12.8069   13.1649   13.2242   12.9217
   12.4813   12.0927   11.8105   11.6184   11.4789   11.3658
   11.2734   11.2035   11.1566   11.1278   11.1091   11.0930
   11.1028   11.0835   11.0746   11.0835   11.1028   11.1278
   11.1630   11.2166   11.2952   11.4011   11.5336   11.6951
   11.8985   12.1709   12.5428   13.0116   13.4777   13.6952
   13.4777   13.0116   12.5428   12.1709   11.8985   11.6951
   11.5336   11.4011   11.2952   11.2166   11.1630   11.1278
   11.1028   11.1182   11.0970   11.0940   11.1071   11.1278
   11.1527   11.1856   11.2346   11.3086   11.4124   11.5477
   11.7203   11.9479   12.2599   12.6818   13.2121   13.7818
   14.1785   14.0965   13.6245   13.0779   12.6078   12.2445
   11.9681   11.7500   11.5709   11.4227   11.3044   11.2166
   11.1566   11.1182   11.1474   11.1240   11.1264   11.1424
   11.1630   11.1856   11.2132   11.2540   11.3191   11.4172
   11.5529   11.7351   11.9863   12.3362   12.8049   13.3908
   14.0497   14.6264   14.7489   14.3066   13.6895   13.1202
   12.6575   12.2963   12.0111   11.7784   11.5839   11.4227
   11.2952   11.2035   11.1474   11.1966   11.1725   11.1799
   11.1976   11.2166   11.2346   11.2540   11.2819   11.3311
   11.4168   11.5488   11.7385   12.0113   12.3965   12.9078
   13.5423   14.2720   15.0016   15.3959   15.0510   14.3757
   13.7106   13.1443   12.6875   12.3225   12.0256   11.7784
   11.5709   11.4011   11.2734   11.1966   11.2668   11.2456
   11.2587   11.2779   11.2952   11.3086   11.3191   11.3311
   11.3560   11.4163   11.5360   11.7300   12.0228   12.4408
   12.9912   13.6676   14.4507   15.2885   15.9692   15.8490
   15.1365   14.3823   13.7142   13.1550   12.6974   12.3225
   12.0111   11.7500   11.5336   11.3658   11.2668   11.3522
   11.3403   11.3611   11.3834   11.4011   11.4124   11.4172
   11.4168   11.4163   11.4329   11.5168   11.7109   12.0241
   12.4738   13.0604   13.7724   14.5936   15.4958   16.3857
   16.6744   15.9726   15.1387   14.3755   13.7140   13.1550
   12.6875   12.2963   11.9681   11.6951   11.4789   11.3522
   11.4440   11.4514   11.4827   11.5113   11.5336   11.5477
   11.5529   11.5488   11.5360   11.5168   11.5099   11.6873
   12.0276   12.5082   13.1264   13.8660   14.7102   15.6411
   16.6241   17.4104   16.8841   15.9809   15.1327   14.3755
   13.7142   13.1443   12.6575   12.2445   11.8985   11.6184
   11.4440   11.5323   11.5773   11.6212   11.6613   11.6951
   11.7203   11.7351   11.7385   11.7300   11.7109   11.6873
   11.7465   12.0783   12.5748   13.2109   13.9622   14.8091
   15.7351   16.7202   17.7156   17.8687   16.9049   15.9809
   15.1387   14.3823   13.7106   13.1202   12.6078   12.1709
   11.8105   11.5323   11.7664   11.7292   11.7824   11.8417
   11.8985   11.9479   11.9863   12.0113   12.0228   12.0241
   12.0276   12.0783   12.2953   12.7387   13.3508   14.0806
   14.8970   15.7752   16.6850   17.5734   18.3369   17.8687
   16.8841   15.9726   15.1365   14.3757   13.6895   13.0779
   12.5428   12.0927   11.7664   12.0811   11.9425   11.9888
   12.0763   12.1709   12.2599   12.3362   12.3965   12.4408
   12.4738   12.5082   12.5748   12.7387   13.0762   13.5951
   14.2452   14.9767   15.7447   16.4932   17.1377   17.5734
   17.7156   17.4104   16.6744   15.8490   15.0510   14.3066
   13.6245   13.0116   12.4813   12.0811   12.4784   12.2587
   12.2796   12.3994   12.5428   12.6818   12.8049   12.9078
   12.9912   13.0604   13.1264   13.2109   13.3508   13.5951
   13.9752   14.4755   15.0458   15.6213   16.1276   16.4932
   16.6850   16.7202   16.6241   16.3857   15.9692   15.3959
   14.7489   14.0965   13.4777   12.9217   12.4784   12.8297
   12.6164   12.6423   12.8069   13.0116   13.2121   13.3908
   13.5423   13.6676   13.7724   13.8660   13.9622   14.0806
   14.2452   14.4755   14.7699   15.0953   15.3967   15.6213
   15.7447   15.7752   15.7351   15.6411   15.4958   15.2885
   15.0016   14.6264   14.1785   13.6952   13.2242   12.8297
   12.9004   12.7874   12.9004   13.1649   13.4777   13.7818
   14.0497   14.2720   14.4507   14.5936   14.7102   14.8091
   14.8970   14.9767   15.0458   15.0953   15.1137   15.0953
   15.0458   14.9767   14.8970   14.8091   14.7102   14.5936
   14.4507   14.2720   14.0497   13.7818   13.4777   13.1649
   12.9004   12.6423   12.6164   12.8297   13.2242   13.6952
   14.1785   14.6264   15.0016   15.2885   15.4958   15.6411
   15.7351   15.7752   15.7447   15.6213   15.3967   15.0953
   14.7699   14.4755   14.2452   14.0806   13.9622   13.8660
   13.7724   13.6676   13.5423   13.3908   13.2121   13.0116
   12.8069   12.6423   12.2796   12.2587   12.4784   12.9217
   13.4777   14.0965   14.7489   15.3959   15.9692   16.3857
   16.6241   16.7202   16.6850   16.4932   16.1276   15.6213
   15.0458   14.4755   13.9752   13.5951   13.3508   13.2109
   13.1264   13.0604   12.9912   12.9078   12.8049   12.6818
   12.5428   12.3994   12.2796   11.9888   11.9425   12.0811
   12.4813   13.0116   13.6245   14.3066   15.0510   15.8490
   16.6744   17.4104   17.7156   17.5734   17.1377   16.4932
   15.7447   14.9767   14.2452   13.5951   13.0762   12.7387
   12.5748   12.5082   12.4738   12.4408   12.3965   12.3362
   12.2599   12.1709   12.0763   11.9888   11.7824   11.7292
   11.7664   12.0927   12.5428   13.0779   13.6895   14.3757
   15.1365   15.9726   16.8841   17.8687   18.3369   17.5734
   16.6850   15.7752   14.8970   14.0806   13.3508   12.7387
   12.2953   12.0783   12.0276   12.0241   12.0228   12.0113
   11.9863   11.9479   11.8985   11.8417   11.7824   11.6212
   11.5773   11.5323   11.8105   12.1709   12.6078   13.1202
   13.7106   14.3823   15.1387   15.9809   16.9049   17.8687
   17.7156   16.7202   15.7351   14.8091   13.9622   13.2109
   12.5748   12.0783   11.7465   11.6873   11.7109   11.7300
   11.7385   11.7351   11.7203   11.6951   11.6613   11.6212
   11.4827   11.4514   11.4440   11.6184   11.8985   12.2445
   12.6575   13.1443   13.7142   14.3755   15.1327   15.9809
   16.8841   17.4104   16.6241   15.6411   14.7102   13.8660
   13.1264   12.5082   12.0276   11.6873   11.5099   11.5168
   11.5360   11.5488   11.5529   11.5477   11.5336   11.5113
   11.4827   11.3611   11.3403   11.3522   11.4789   11.6951
   11.9681   12.2963   12.6875   13.1550   13.7140   14.3755
   15.1387   15.9726   16.6744   16.3857   15.4958   14.5936
   13.7724   13.0604   12.4738   12.0241   11.7109   11.5168
   11.4329   11.4163   11.4168   11.4172   11.4124   11.4011
   11.3834   11.3611   11.2587   11.2456   11.2668   11.3658
   11.5336   11.7500   12.0111   12.3225   12.6974   13.1550
   13.7142   14.3823   15.1365   15.8490   15.9692   15.2885
   14.4507   13.6676   12.9912   12.4408   12.0228   11.7300
   11.5360   11.4163   11.3560   11.3311   11.3191   11.3086
   11.2952   11.2779   11.2587   11.1799   11.1725   11.1966
   11.2734   11.4011   11.5709   11.7784   12.0256   12.3225
   12.6875   13.1443   13.7106   14.3757   15.0510   15.3959
   15.0016   14.2720   13.5423   12.9078   12.3965   12.0113
   11.7385   11.5488   11.4168   11.3311   11.2819   11.2540
   11.2346   11.2166   11.1976   11.1799   11.1264   11.1240
   11.1474   11.2035   11.2952   11.4227   11.5839   11.7784
   12.0111   12.2963   12.6575   13.1202   13.6895   14.3066
   14.7489   14.6264   14.0497   13.3908   12.8049   12.3362
   11.9863   11.7351   11.5529   11.4172   11.3191   11.2540
   11.2132   11.1856   11.1630   11.1424   11.1264   11.0940
   11.0970   11.1182   11.1566   11.2166   11.3044   11.4227
   11.5709   11.7500   11.9681   12.2445   12.6078   13.0779
   13.6245   14.0965   14.1785   13.7818   13.2121   12.6818
   12.2599   11.9479   11.7203   11.5477   11.4124   11.3086
   11.2346   11.1856   11.1527   11.1278   11.1071   11.0940
   11.0746   11.0835   11.1028   11.1278   11.1630   11.2166
   11.2952   11.4011   11.5336   11.6951   11.8985   12.1709
   12.5428   13.0116   13.4777   13.6952   13.4777   13.0116
   12.5428   12.1709   11.8985   11.6951   11.5336   11.4011
   11.2952   11.2166   11.1630   11.1278   11.1028   11.0835
   11.0746   11.0596   11.0752   11.0930   11.1091   11.1278
   11.1566   11.2035   11.2734   11.3658   11.4789   11.6184
   11.8105   12.0927   12.4813   12.9217   13.2242   13.1649
   12.8069   12.3994   12.0763   11.8417   11.6613   11.5113
   11.3834   11.2779   11.1976   11.1424   11.1071   11.0835
   11.0655   11.0596   11.0425   11.0661   11.0823   11.0930
   11.1028   11.1182   11.1474   11.1966   11.2668   11.3522
   11.4440   11.5323   11.7664   12.0811   12.4784   12.8297
   12.9004   12.6423   12.2796   11.9888   11.7824   11.6212
   11.4827   11.3611   11.2587   11.1799   11.1264   11.0940
   11.0746   11.0596   11.0425   11.0301   11.0655   11.0930
   11.1140   11.1320   11.1527   11.1834   11.2308   11.2971
   11.3782   11.4659   11.6067   11.9071   12.2930   12.7627
   13.2212   13.4389   13.2528   12.8405   12.4361   12.1231
   11.8876   11.6990   11.5391   11.4021   11.2887   11.2008