
     Program PWSCF v.6.4.1 starts on 31Jul2021 at 13:24:58 

     This program is part of the open-source Quantum ESPRESSO suite
     for quantum simulation of materials; please cite
         "P. Giannozzi et al., J. Phys.:Condens. Matter 21 395502 (2009);
         "P. Giannozzi et al., J. Phys.:Condens. Matter 29 465901 (2017);
          URL http://www.quantum-espresso.org", 
     in publications or presentations arising from this work. More details at
     http://www.quantum-espresso.org/quote

     Parallel version (MPI & OpenMP), running on      12 processor cores
     Number of MPI processes:                 1
     Threads/MPI process:                    12

     MPI processes distributed on     1 nodes
     Waiting for input...
     Reading input from standard input
Warning: card &IONS ignored
Warning: card / ignored

     Current dimensions of program PWSCF are:
     Max number of different atomic species (ntypx) = 10
     Max number of k-points (npk) =  40000
     Max angular momentum in pseudopotentials (lmaxx) =  3

     gamma-point specific algorithms are used

     Subspace diagonalization in iterative solution of the eigenvalue problem:
     a serial algorithm will be used


     G-vector sticks info
     --------------------
     sticks:   dense  smooth     PW     G-vecs:    dense   smooth      PW
     Sum       12745   12745   3181              1080751  1080751  135043



     bravais-lattice index     =            1
     lattice parameter (alat)  =      20.0000  a.u.
     unit-cell volume          =    8000.0000 (a.u.)^3
     number of atoms/cell      =            2
     number of atomic types    =            1
     number of electrons       =        14.00
     number of Kohn-Sham states=            7
     kinetic-energy cutoff     =     100.0000  Ry
     charge density cutoff     =     400.0000  Ry
     convergence threshold     =      1.0E-06
     mixing beta               =       0.7000
     number of iterations used =            8  plain     mixing
     Exchange-correlation      = SLA PZ NOGX NOGC ( 1  1  0  0 0 0)

     celldm(1)=  20.000000  celldm(2)=   0.000000  celldm(3)=   0.000000
     celldm(4)=   0.000000  celldm(5)=   0.000000  celldm(6)=   0.000000

     crystal axes: (cart. coord. in units of alat)
               a(1) = (   1.000000   0.000000   0.000000 )  
               a(2) = (   0.000000   1.000000   0.000000 )  
               a(3) = (   0.000000   0.000000   1.000000 )  

     reciprocal axes: (cart. coord. in units 2 pi/alat)
               b(1) = (  1.000000  0.000000  0.000000 )  
               b(2) = (  0.000000  1.000000  0.000000 )  
               b(3) = (  0.000000  0.000000  1.000000 )  


     PseudoPot. # 1 for Cl read from file:
     ./\Cl.pz-bhs.UPF
     MD5 check sum: 9c02ba023c6fb182265edc76b6982ecd
     Pseudo is Norm-conserving, Zval =  7.0
     Generated by new atomic code, or converted to UPF format
     Using radial grid of  479 points,  2 beta functions with: 
                l(1) =   0
                l(2) =   1

     atomic species   valence    mass     pseudopotential
        Cl             7.00     1.00000     Cl( 1.00)

      8 Sym. Ops. (no inversion) found



   Cartesian axes

     site n.     atom                  positions (alat units)
         1           Cl  tau(   1) = (   0.0000000   0.0000000   0.0000000  )
         2           Cl  tau(   2) = (   0.1857500   0.0000000   0.0000000  )

     number of k points=     1
                       cart. coord. in units 2pi/alat
        k(    1) = (   0.0000000   0.0000000   0.0000000), wk =   2.0000000

     Dense  grid:   540376 G-vectors     FFT dimensions: ( 128, 128, 128)

     Estimated max dynamical RAM per process >     442.32 MB

     Initial potential from superposition of free atoms

     starting charge   13.99999, renormalised to   14.00000

     negative rho (up, down):  6.671E-04 0.000E+00
     Starting wfcs are    8 randomized atomic wfcs

     total cpu time spent up to now is        0.8 secs

     Self-consistent Calculation

     iteration #  1     ecut=   100.00 Ry     beta= 0.70
     Davidson diagonalization with overlap
     ethr =  1.00E-02,  avg # of iterations =  2.0

     Threshold (ethr) on eigenvalues was too large:
     Diagonalizing with lowered threshold

     Davidson diagonalization with overlap
     ethr =  4.20E-04,  avg # of iterations =  3.0

     negative rho (up, down):  1.407E-04 0.000E+00

     total cpu time spent up to now is        2.1 secs

     total energy              =     -59.98734979 Ry
     Harris-Foulkes estimate   =     -60.01252136 Ry
     estimated scf accuracy    <       0.05309180 Ry

     iteration #  2     ecut=   100.00 Ry     beta= 0.70
     Davidson diagonalization with overlap
     ethr =  3.79E-04,  avg # of iterations =  2.0

     negative rho (up, down):  1.569E-05 0.000E+00

     total cpu time spent up to now is        2.7 secs

     total energy              =     -59.99020856 Ry
     Harris-Foulkes estimate   =     -59.99085094 Ry
     estimated scf accuracy    <       0.00184130 Ry

     iteration #  3     ecut=   100.00 Ry     beta= 0.70
     Davidson diagonalization with overlap
     ethr =  1.32E-05,  avg # of iterations =  3.0

     negative rho (up, down):  4.876E-06 0.000E+00

     total cpu time spent up to now is        3.4 secs

     total energy              =     -59.99055251 Ry
     Harris-Foulkes estimate   =     -59.99058247 Ry
     estimated scf accuracy    <       0.00005598 Ry

     iteration #  4     ecut=   100.00 Ry     beta= 0.70
     Davidson diagonalization with overlap
     ethr =  4.00E-07,  avg # of iterations =  2.0

     negative rho (up, down):  9.682E-07 0.000E+00

     total cpu time spent up to now is        4.2 secs

     total energy              =     -59.99057138 Ry
     Harris-Foulkes estimate   =     -59.99057655 Ry
     estimated scf accuracy    <       0.00000996 Ry

     iteration #  5     ecut=   100.00 Ry     beta= 0.70
     Davidson diagonalization with overlap
     ethr =  7.11E-08,  avg # of iterations =  2.0

     total cpu time spent up to now is        4.9 secs

     End of self-consistent calculation

          k = 0.0000 0.0000 0.0000 ( 67522 PWs)   bands (ev):

   -23.5925 -19.0373 -11.8329  -9.8249  -9.8249  -6.9813  -6.9813

     highest occupied level (ev):    -6.9813

!    total energy              =     -59.99057380 Ry
     Harris-Foulkes estimate   =     -59.99057364 Ry
     estimated scf accuracy    <       0.00000010 Ry

     The total energy is the sum of the following terms:

     one-electron contribution =     -97.10206686 Ry
     hartree contribution      =      49.45655065 Ry
     xc contribution           =     -11.29144300 Ry
     ewald contribution        =      -1.05361460 Ry

     convergence has been achieved in   5 iterations

     Writing output data file cl2.save\

     init_run     :      2.81s CPU      0.72s WALL (       1 calls)
     electrons    :     24.61s CPU      4.07s WALL (       1 calls)

     Called by init_run:
     wfcinit      :      1.25s CPU      0.19s WALL (       1 calls)
     potinit      :      1.06s CPU      0.15s WALL (       1 calls)
     hinit0       :      0.36s CPU      0.25s WALL (       1 calls)

     Called by electrons:
     c_bands      :     14.81s CPU      2.46s WALL (       6 calls)
     sum_band     :      3.98s CPU      0.70s WALL (       6 calls)
     v_of_rho     :      3.55s CPU      0.45s WALL (       6 calls)
     mix_rho      :      2.34s CPU      0.41s WALL (       6 calls)

     Called by c_bands:
     init_us_2    :      0.66s CPU      0.02s WALL (      13 calls)
     regterg      :     14.23s CPU      2.43s WALL (       6 calls)

     Called by sum_band:

     Called by *egterg:
     h_psi        :     13.61s CPU      2.29s WALL (      21 calls)
     g_psi        :      0.11s CPU      0.01s WALL (      14 calls)
     rdiaghg      :      0.00s CPU      0.01s WALL (      19 calls)

     Called by h_psi:
     h_psi:pot    :     13.55s CPU      2.28s WALL (      21 calls)
     h_psi:calbec :      0.09s CPU      0.03s WALL (      21 calls)
     vloc_psi     :     12.98s CPU      2.20s WALL (      21 calls)
     add_vuspsi   :      0.47s CPU      0.04s WALL (      21 calls)

     General routines
     calbec       :      0.09s CPU      0.03s WALL (      21 calls)
     fft          :      1.12s CPU      0.18s WALL (      18 calls)
     ffts         :      0.47s CPU      0.06s WALL (       6 calls)
     fftw         :     10.14s CPU      1.64s WALL (     162 calls)

     Parallel routines

     PWSCF        :     27.95s CPU      5.00s WALL


   This run was terminated on:  13:25: 3  31Jul2021            

=------------------------------------------------------------------------------=
   JOB DONE.
=------------------------------------------------------------------------------=
