
     Program PWSCF v.6.4.1 starts on 30Jul2021 at 16: 9: 3 

     This program is part of the open-source Quantum ESPRESSO suite
     for quantum simulation of materials; please cite
         "P. Giannozzi et al., J. Phys.:Condens. Matter 21 395502 (2009);
         "P. Giannozzi et al., J. Phys.:Condens. Matter 29 465901 (2017);
          URL http://www.quantum-espresso.org", 
     in publications or presentations arising from this work. More details at
     http://www.quantum-espresso.org/quote

     Parallel version (MPI & OpenMP), running on      12 processor cores
     Number of MPI processes:                 1
     Threads/MPI process:                    12

     MPI processes distributed on     1 nodes
     Waiting for input...
     Reading input from standard input
Warning: card &IONS ignored
Warning: card / ignored

     Current dimensions of program PWSCF are:
     Max number of different atomic species (ntypx) = 10
     Max number of k-points (npk) =  40000
     Max angular momentum in pseudopotentials (lmaxx) =  3

     Subspace diagonalization in iterative solution of the eigenvalue problem:
     a serial algorithm will be used


     G-vector sticks info
     --------------------
     sticks:   dense  smooth     PW     G-vecs:    dense   smooth      PW
     Sum       12745   12745   3181              1080751  1080751  135043



     bravais-lattice index     =            1
     lattice parameter (alat)  =      20.0000  a.u.
     unit-cell volume          =    8000.0000 (a.u.)^3
     number of atoms/cell      =            2
     number of atomic types    =            1
     number of electrons       =        14.00
     number of Kohn-Sham states=            7
     kinetic-energy cutoff     =     100.0000  Ry
     charge density cutoff     =     400.0000  Ry
     convergence threshold     =      1.0E-06
     mixing beta               =       0.7000
     number of iterations used =            8  plain     mixing
     Exchange-correlation      = SLA PZ NOGX NOGC ( 1  1  0  0 0 0)

     celldm(1)=  20.000000  celldm(2)=   0.000000  celldm(3)=   0.000000
     celldm(4)=   0.000000  celldm(5)=   0.000000  celldm(6)=   0.000000

     crystal axes: (cart. coord. in units of alat)
               a(1) = (   1.000000   0.000000   0.000000 )  
               a(2) = (   0.000000   1.000000   0.000000 )  
               a(3) = (   0.000000   0.000000   1.000000 )  

     reciprocal axes: (cart. coord. in units 2 pi/alat)
               b(1) = (  1.000000  0.000000  0.000000 )  
               b(2) = (  0.000000  1.000000  0.000000 )  
               b(3) = (  0.000000  0.000000  1.000000 )  


     PseudoPot. # 1 for Cl read from file:
     ./\Cl.pz-bhs.UPF
     MD5 check sum: 9c02ba023c6fb182265edc76b6982ecd
     Pseudo is Norm-conserving, Zval =  7.0
     Generated by new atomic code, or converted to UPF format
     Using radial grid of  479 points,  2 beta functions with: 
                l(1) =   0
                l(2) =   1

     atomic species   valence    mass     pseudopotential
        Cl             7.00     1.00000     Cl( 1.00)

      8 Sym. Ops. (no inversion) found



   Cartesian axes

     site n.     atom                  positions (alat units)
         1           Cl  tau(   1) = (   0.0000000   0.0000000   0.0000000  )
         2           Cl  tau(   2) = (   0.1862500   0.0000000   0.0000000  )

     number of k points=     1
                       cart. coord. in units 2pi/alat
        k(    1) = (   0.0000000   0.0000000   0.0000000), wk =   2.0000000

     Dense  grid:  1080751 G-vectors     FFT dimensions: ( 128, 128, 128)

     Estimated max dynamical RAM per process >     740.21 MB

     Initial potential from superposition of free atoms

     starting charge   13.99999, renormalised to   14.00000

     negative rho (up, down):  6.676E-04 0.000E+00
     Starting wfcs are    8 randomized atomic wfcs

     total cpu time spent up to now is        1.3 secs

     Self-consistent Calculation

     iteration #  1     ecut=   100.00 Ry     beta= 0.70
     Davidson diagonalization with overlap
     ethr =  1.00E-02,  avg # of iterations =  2.0

     Threshold (ethr) on eigenvalues was too large:
     Diagonalizing with lowered threshold

     Davidson diagonalization with overlap
     ethr =  4.21E-04,  avg # of iterations =  3.0

     negative rho (up, down):  1.415E-04 0.000E+00

     total cpu time spent up to now is        3.2 secs

     total energy              =     -59.98731399 Ry
     Harris-Foulkes estimate   =     -60.01273405 Ry
     estimated scf accuracy    <       0.05348903 Ry

     iteration #  2     ecut=   100.00 Ry     beta= 0.70
     Davidson diagonalization with overlap
     ethr =  3.82E-04,  avg # of iterations =  2.0

     negative rho (up, down):  1.600E-05 0.000E+00

     total cpu time spent up to now is        4.4 secs

     total energy              =     -59.99022499 Ry
     Harris-Foulkes estimate   =     -59.99087747 Ry
     estimated scf accuracy    <       0.00185390 Ry

     iteration #  3     ecut=   100.00 Ry     beta= 0.70
     Davidson diagonalization with overlap
     ethr =  1.32E-05,  avg # of iterations =  3.0

     negative rho (up, down):  4.982E-06 0.000E+00

     total cpu time spent up to now is        5.9 secs

     total energy              =     -59.99057350 Ry
     Harris-Foulkes estimate   =     -59.99060314 Ry
     estimated scf accuracy    <       0.00005740 Ry

     iteration #  4     ecut=   100.00 Ry     beta= 0.70
     Davidson diagonalization with overlap
     ethr =  4.10E-07,  avg # of iterations =  2.0

     negative rho (up, down):  9.842E-07 0.000E+00

     total cpu time spent up to now is        7.3 secs

     total energy              =     -59.99059305 Ry
     Harris-Foulkes estimate   =     -59.99059814 Ry
     estimated scf accuracy    <       0.00000999 Ry

     iteration #  5     ecut=   100.00 Ry     beta= 0.70
     Davidson diagonalization with overlap
     ethr =  7.13E-08,  avg # of iterations =  2.0

     total cpu time spent up to now is        8.4 secs

     End of self-consistent calculation

          k = 0.0000 0.0000 0.0000 (135043 PWs)   bands (ev):

   -23.5555 -19.0531 -11.8230  -9.8076  -9.8076  -6.9932  -6.9932

     highest occupied level (ev):    -6.9932

!    total energy              =     -59.99059541 Ry
     Harris-Foulkes estimate   =     -59.99059537 Ry
     estimated scf accuracy    <       0.00000010 Ry

     The total energy is the sum of the following terms:

     one-electron contribution =     -96.97342786 Ry
     hartree contribution      =      49.39262924 Ry
     xc contribution           =     -11.28747185 Ry
     ewald contribution        =      -1.12232494 Ry

     convergence has been achieved in   5 iterations

     Writing output data file cl2.save\

     init_run     :      4.05s CPU      1.15s WALL (       1 calls)
     electrons    :     49.27s CPU      7.20s WALL (       1 calls)

     Called by init_run:
     wfcinit      :      2.36s CPU      0.39s WALL (       1 calls)
     potinit      :      1.00s CPU      0.11s WALL (       1 calls)
     hinit0       :      0.38s CPU      0.31s WALL (       1 calls)

     Called by electrons:
     c_bands      :     28.22s CPU      3.94s WALL (       6 calls)
     sum_band     :     10.36s CPU      1.55s WALL (       6 calls)
     v_of_rho     :      4.72s CPU      0.60s WALL (       6 calls)
     mix_rho      :      4.92s CPU      0.91s WALL (       6 calls)

     Called by c_bands:
     init_us_2    :      0.33s CPU      0.06s WALL (      13 calls)
     cegterg      :     27.89s CPU      3.89s WALL (       6 calls)

     Called by sum_band:

     Called by *egterg:
     h_psi        :     27.41s CPU      3.78s WALL (      21 calls)
     g_psi        :      0.00s CPU      0.02s WALL (      14 calls)
     cdiaghg      :      0.00s CPU      0.00s WALL (      19 calls)

     Called by h_psi:
     h_psi:pot    :     26.81s CPU      3.73s WALL (      21 calls)
     h_psi:calbec :      0.28s CPU      0.05s WALL (      21 calls)
     vloc_psi     :     26.06s CPU      3.62s WALL (      21 calls)
     add_vuspsi   :      0.47s CPU      0.06s WALL (      21 calls)

     General routines
     calbec       :      0.28s CPU      0.05s WALL (      21 calls)
     fft          :      1.12s CPU      0.18s WALL (      18 calls)
     ffts         :      0.23s CPU      0.06s WALL (       6 calls)
     fftw         :     17.17s CPU      2.92s WALL (     286 calls)

     Parallel routines

     PWSCF        :     54.34s CPU      8.69s WALL


   This run was terminated on:  16: 9:12  30Jul2021            

=------------------------------------------------------------------------------=
   JOB DONE.
=------------------------------------------------------------------------------=
