
     Program PHONON v.6.4.1 starts on 30Jul2021 at 16:10:12 

     This program is part of the open-source Quantum ESPRESSO suite
     for quantum simulation of materials; please cite
         "P. Giannozzi et al., J. Phys.:Condens. Matter 21 395502 (2009);
         "P. Giannozzi et al., J. Phys.:Condens. Matter 29 465901 (2017);
          URL http://www.quantum-espresso.org", 
     in publications or presentations arising from this work. More details at
     http://www.quantum-espresso.org/quote

     Parallel version (MPI & OpenMP), running on      12 processor cores
     Number of MPI processes:                 1
     Threads/MPI process:                    12

     MPI processes distributed on     1 nodes

     Reading data from directory:
     ./\Cl2.save\

     IMPORTANT: XC functional enforced from input :
     Exchange-correlation      = PZ ( 1  1  0  0 0 0)
     Any further DFT definition will be discarded
     Please, verify this is what you really want


     G-vector sticks info
     --------------------
     sticks:   dense  smooth     PW     G-vecs:    dense   smooth      PW
     Sum       12745   12745   3181              1080751  1080751  135043


     Calculation of q =    0.0000000   0.0000000   0.0000000

     vibrations of Cl2                                                          

     bravais-lattice index     =            1
     lattice parameter (alat)  =      20.0000  a.u.
     unit-cell volume          =    8000.0000 (a.u.)^3
     number of atoms/cell      =            2
     number of atomic types    =            1
     kinetic-energy cut-off    =     100.0000  Ry
     charge density cut-off    =     400.0000  Ry
     convergence threshold     =      1.0E-12
     beta                      =       0.7000
     number of iterations used =            4
     Exchange-correlation      = PZ ( 1  1  0  0 0 0)


     celldm(1)=   20.00000  celldm(2)=    0.00000  celldm(3)=    0.00000
     celldm(4)=    0.00000  celldm(5)=    0.00000  celldm(6)=    0.00000

     crystal axes: (cart. coord. in units of alat)
               a(1) = (  1.0000  0.0000  0.0000 )  
               a(2) = (  0.0000  1.0000  0.0000 )  
               a(3) = (  0.0000  0.0000  1.0000 )  

     reciprocal axes: (cart. coord. in units 2 pi/alat)
               b(1) = (  1.0000  0.0000  0.0000 )  
               b(2) = (  0.0000  1.0000  0.0000 )  
               b(3) = (  0.0000  0.0000  1.0000 )  


     Atoms inside the unit cell: 

     Cartesian axes

     site n.  atom      mass           positions (alat units)
        1     Cl  35.4500   tau(    1) = (    0.00000    0.00000    0.00000  )
        2     Cl  35.4500   tau(    2) = (    0.18625    0.00000    0.00000  )

     Computing dynamical matrix for 
                    q = (   0.0000000   0.0000000   0.0000000 )

      9 Sym.Ops. (with q -> -q+G )


     G cutoff = 4052.8473  (1080751 G-vectors)     FFT grid: (128,128,128)
     number of k points=     1
                       cart. coord. in units 2pi/alat
        k(    1) = (   0.0000000   0.0000000   0.0000000), wk =   2.0000000

     PseudoPot. # 1 for Cl read from file:
     ./\Cl.pz-bhs.UPF
     MD5 check sum: 26a8f3ac3cfbfa284a694b1b118abb29
     Pseudo is Norm-conserving, Zval =  7.0
     Generated by new atomic code, or converted to UPF format
     Using radial grid of  479 points,  2 beta functions with: 
                l(1) =   0
                l(2) =   1

     Mode symmetry, C_4v (4mm)  point group:

     k=gamma and q=gamma tricks are used


     Atomic displacements:
     There are   6 irreducible representations

     Representation     1      1 modes -A  To be done

     Representation     2      1 modes -A  To be done

     Representation     3      1 modes -A  To be done

     Representation     4      1 modes -A  To be done

     Representation     5      1 modes -A  To be done

     Representation     6      1 modes -A  To be done



     Alpha used in Ewald sum =   2.8000
     PHONON       :     26.72s CPU     20.54s WALL



     Representation #  1 mode #   1

     Self-consistent Calculation

      iter #   1 total cpu time :    23.1 secs   av.it.:   6.0
      thresh= 1.000E-02 alpha_mix =  0.700 |ddv_scf|^2 =  2.459E-08

      iter #   2 total cpu time :    27.4 secs   av.it.:  13.0
      thresh= 1.568E-05 alpha_mix =  0.700 |ddv_scf|^2 =  2.294E-08

      iter #   3 total cpu time :    31.9 secs   av.it.:  13.0
      thresh= 1.515E-05 alpha_mix =  0.700 |ddv_scf|^2 =  3.822E-10

      iter #   4 total cpu time :    36.7 secs   av.it.:  12.0
      thresh= 1.955E-06 alpha_mix =  0.700 |ddv_scf|^2 =  5.661E-12

      iter #   5 total cpu time :    41.1 secs   av.it.:  13.0
      thresh= 2.379E-07 alpha_mix =  0.700 |ddv_scf|^2 =  1.834E-13

     End of self-consistent calculation

     Convergence has been achieved 


     Representation #  2 mode #   2

     Self-consistent Calculation

      iter #   1 total cpu time :    44.4 secs   av.it.:   7.0
      thresh= 1.000E-02 alpha_mix =  0.700 |ddv_scf|^2 =  1.454E-08

      iter #   2 total cpu time :    49.7 secs   av.it.:  14.0
      thresh= 1.206E-05 alpha_mix =  0.700 |ddv_scf|^2 =  4.663E-09

      iter #   3 total cpu time :    55.1 secs   av.it.:  14.0
      thresh= 6.829E-06 alpha_mix =  0.700 |ddv_scf|^2 =  2.697E-11

      iter #   4 total cpu time :    60.1 secs   av.it.:  14.0
      thresh= 5.194E-07 alpha_mix =  0.700 |ddv_scf|^2 =  1.095E-12

      iter #   5 total cpu time :    64.8 secs   av.it.:  14.0
      thresh= 1.047E-07 alpha_mix =  0.700 |ddv_scf|^2 =  5.880E-15

     End of self-consistent calculation

     Convergence has been achieved 


     Representation #  3 mode #   3

     Self-consistent Calculation

      iter #   1 total cpu time :    68.5 secs   av.it.:   7.0
      thresh= 1.000E-02 alpha_mix =  0.700 |ddv_scf|^2 =  1.454E-08

      iter #   2 total cpu time :    73.7 secs   av.it.:  14.0
      thresh= 1.206E-05 alpha_mix =  0.700 |ddv_scf|^2 =  4.664E-09

      iter #   3 total cpu time :    78.7 secs   av.it.:  14.0
      thresh= 6.829E-06 alpha_mix =  0.700 |ddv_scf|^2 =  2.697E-11

      iter #   4 total cpu time :    83.7 secs   av.it.:  14.0
      thresh= 5.194E-07 alpha_mix =  0.700 |ddv_scf|^2 =  1.095E-12

      iter #   5 total cpu time :    88.7 secs   av.it.:  14.0
      thresh= 1.047E-07 alpha_mix =  0.700 |ddv_scf|^2 =  5.884E-15

     End of self-consistent calculation

     Convergence has been achieved 


     Representation #  4 mode #   4

     Self-consistent Calculation

      iter #   1 total cpu time :    92.0 secs   av.it.:   6.0
      thresh= 1.000E-02 alpha_mix =  0.700 |ddv_scf|^2 =  2.459E-08

      iter #   2 total cpu time :    97.0 secs   av.it.:  13.0
      thresh= 1.568E-05 alpha_mix =  0.700 |ddv_scf|^2 =  2.295E-08

      iter #   3 total cpu time :   101.4 secs   av.it.:  13.0
      thresh= 1.515E-05 alpha_mix =  0.700 |ddv_scf|^2 =  3.823E-10

      iter #   4 total cpu time :   105.9 secs   av.it.:  12.0
      thresh= 1.955E-06 alpha_mix =  0.700 |ddv_scf|^2 =  5.661E-12

      iter #   5 total cpu time :   110.8 secs   av.it.:  13.0
      thresh= 2.379E-07 alpha_mix =  0.700 |ddv_scf|^2 =  1.834E-13

     End of self-consistent calculation

     Convergence has been achieved 


     Representation #  5 mode #   5

     Self-consistent Calculation

      iter #   1 total cpu time :   114.6 secs   av.it.:   7.0
      thresh= 1.000E-02 alpha_mix =  0.700 |ddv_scf|^2 =  1.454E-08

      iter #   2 total cpu time :   119.5 secs   av.it.:  14.0
      thresh= 1.206E-05 alpha_mix =  0.700 |ddv_scf|^2 =  4.664E-09

      iter #   3 total cpu time :   124.3 secs   av.it.:  14.0
      thresh= 6.829E-06 alpha_mix =  0.700 |ddv_scf|^2 =  2.697E-11

      iter #   4 total cpu time :   129.1 secs   av.it.:  14.0
      thresh= 5.193E-07 alpha_mix =  0.700 |ddv_scf|^2 =  1.095E-12

      iter #   5 total cpu time :   133.6 secs   av.it.:  14.0
      thresh= 1.047E-07 alpha_mix =  0.700 |ddv_scf|^2 =  5.882E-15

     End of self-consistent calculation

     Convergence has been achieved 


     Representation #  6 mode #   6

     Self-consistent Calculation

      iter #   1 total cpu time :   136.9 secs   av.it.:   7.0
      thresh= 1.000E-02 alpha_mix =  0.700 |ddv_scf|^2 =  1.454E-08

      iter #   2 total cpu time :   141.8 secs   av.it.:  14.0
      thresh= 1.206E-05 alpha_mix =  0.700 |ddv_scf|^2 =  4.664E-09

      iter #   3 total cpu time :   146.5 secs   av.it.:  14.0
      thresh= 6.829E-06 alpha_mix =  0.700 |ddv_scf|^2 =  2.697E-11

      iter #   4 total cpu time :   151.5 secs   av.it.:  14.0
      thresh= 5.193E-07 alpha_mix =  0.700 |ddv_scf|^2 =  1.096E-12

      iter #   5 total cpu time :   156.4 secs   av.it.:  14.0
      thresh= 1.047E-07 alpha_mix =  0.700 |ddv_scf|^2 =  5.885E-15

     End of self-consistent calculation

     Convergence has been achieved 

     Number of q in the star =    1
     List of q in the star:
          1   0.000000000   0.000000000   0.000000000

     Diagonalizing the dynamical matrix

     q = (    0.000000000   0.000000000   0.000000000 ) 

 **************************************************************************
     freq (    1) =      -3.235053 [THz] =    -107.909755 [cm-1]
     freq (    2) =      -0.852846 [THz] =     -28.447867 [cm-1]
     freq (    3) =      -0.848421 [THz] =     -28.300293 [cm-1]
     freq (    4) =       1.557713 [THz] =      51.959711 [cm-1]
     freq (    5) =       1.560192 [THz] =      52.042398 [cm-1]
     freq (    6) =      16.616661 [THz] =     554.272155 [cm-1]
 **************************************************************************

     Mode symmetry, C_4v (4mm)  point group:

     freq (  1 -  1) =       -107.9  [cm-1]   -->   ?
     freq (  2 -  2) =        -28.4  [cm-1]   -->   ?
     freq (  3 -  3) =        -28.3  [cm-1]   -->   ?
     freq (  4 -  4) =         52.0  [cm-1]   -->   ?
     freq (  5 -  5) =         52.0  [cm-1]   -->   ?
     freq (  6 -  6) =        554.3  [cm-1]   --> A_1  G_1 D_1    I+R

     PHONON       :  15m33.25s CPU   2m36.87s WALL

     INITIALIZATION: 
     phq_setup    :      0.98s CPU      0.27s WALL (       1 calls)
     phq_init     :     22.69s CPU     19.29s WALL (       1 calls)

     phq_init     :     22.69s CPU     19.29s WALL (       1 calls)
     init_vloc    :      0.25s CPU      0.05s WALL (       1 calls)
     init_us_1    :      0.19s CPU      0.04s WALL (       1 calls)

     DYNAMICAL MATRIX:
     dynmat0      :      5.73s CPU      2.49s WALL (       1 calls)
     phqscf       :    906.31s CPU    136.27s WALL (       1 calls)
     dynmatrix    :      0.00s CPU      0.00s WALL (       1 calls)

     phqscf       :    906.31s CPU    136.27s WALL (       1 calls)
     solve_linter :    892.75s CPU    133.91s WALL (       6 calls)
     drhodv       :     12.25s CPU      2.07s WALL (       6 calls)

     dynmat0      :      5.73s CPU      2.49s WALL (       1 calls)
     dynmat_us    :      3.59s CPU      1.82s WALL (       1 calls)
     d2ionq       :      2.14s CPU      0.66s WALL (       1 calls)

     dynmat_us    :      3.59s CPU      1.82s WALL (       1 calls)

     phqscf       :    906.31s CPU    136.27s WALL (       1 calls)
     solve_linter :    892.75s CPU    133.91s WALL (       6 calls)

     solve_linter :    892.75s CPU    133.91s WALL (       6 calls)
     dvqpsi_us    :     10.70s CPU      1.83s WALL (       6 calls)
     ortho        :      2.67s CPU      0.28s WALL (      30 calls)
     cgsolve      :    743.09s CPU    107.12s WALL (      30 calls)
     incdrhoscf   :     50.45s CPU      8.69s WALL (      30 calls)
     vpsifft      :     32.73s CPU      5.61s WALL (      24 calls)
     dv_of_drho   :     14.28s CPU      2.51s WALL (      30 calls)
     mix_pot      :     25.66s CPU      5.20s WALL (      30 calls)

     dvqpsi_us    :     10.70s CPU      1.83s WALL (       6 calls)
     dvqpsi_us_on :      0.55s CPU      0.08s WALL (       6 calls)

     cgsolve      :    743.09s CPU    107.12s WALL (      30 calls)
     ch_psi       :    699.91s CPU     99.99s WALL (     444 calls)

     ch_psi       :    699.91s CPU     99.99s WALL (     444 calls)
     h_psi        :    616.86s CPU     86.16s WALL (     444 calls)
     last         :     59.14s CPU     10.07s WALL (     444 calls)

     h_psi        :    616.86s CPU     86.16s WALL (     444 calls)
     add_vuspsi   :      7.52s CPU      1.20s WALL (     444 calls)

     incdrhoscf   :     50.45s CPU      8.69s WALL (      30 calls)


      General routines
     calbec       :     14.61s CPU      2.64s WALL (     922 calls)
     fft          :      6.05s CPU      1.01s WALL (      95 calls)
     ffts         :      2.61s CPU      0.44s WALL (      42 calls)
     fftw         :    378.22s CPU     66.22s WALL (    6192 calls)
     davcio       :     18.58s CPU      4.02s WALL (     242 calls)
     write_rec    :      7.55s CPU      1.53s WALL (      36 calls)


     PHONON       :  15m33.25s CPU   2m36.87s WALL


   This run was terminated on:  16:12:49  30Jul2021            

=------------------------------------------------------------------------------=
   JOB DONE.
=------------------------------------------------------------------------------=
