
     Program MATDYN v.6.4.1 starts on 31Jul2021 at 16:39:56 

     This program is part of the open-source Quantum ESPRESSO suite
     for quantum simulation of materials; please cite
         "P. Giannozzi et al., J. Phys.:Condens. Matter 21 395502 (2009);
         "P. Giannozzi et al., J. Phys.:Condens. Matter 29 465901 (2017);
          URL http://www.quantum-espresso.org", 
     in publications or presentations arising from this work. More details at
     http://www.quantum-espresso.org/quote

     Parallel version (MPI & OpenMP), running on      12 processor cores
     Number of MPI processes:                 1
     Threads/MPI process:                    12

     MPI processes distributed on     1 nodes
 mass for atomic type   1 not given; uses mass from file sto.fc                                                                                                                                                                                                                                                          
 mass for atomic type   2 not given; uses mass from file sto.fc                                                                                                                                                                                                                                                          
 mass for atomic type   3 not given; uses mass from file sto.fc                                                                                                                                                                                                                                                          

     MATDYN       :      0.09s CPU      0.13s WALL


   This run was terminated on:  16:39:56  31Jul2021            

=------------------------------------------------------------------------------=
   JOB DONE.
=------------------------------------------------------------------------------=
