
     Program PWSCF v.6.4.1 starts on 31Jul2021 at 23:26:31 

     This program is part of the open-source Quantum ESPRESSO suite
     for quantum simulation of materials; please cite
         "P. Giannozzi et al., J. Phys.:Condens. Matter 21 395502 (2009);
         "P. Giannozzi et al., J. Phys.:Condens. Matter 29 465901 (2017);
          URL http://www.quantum-espresso.org", 
     in publications or presentations arising from this work. More details at
     http://www.quantum-espresso.org/quote

     Parallel version (MPI & OpenMP), running on      12 processor cores
     Number of MPI processes:                 1
     Threads/MPI process:                    12

     MPI processes distributed on     1 nodes
     Waiting for input...
     Reading input from standard input

     Current dimensions of program PWSCF are:
     Max number of different atomic species (ntypx) = 10
     Max number of k-points (npk) =  40000
     Max angular momentum in pseudopotentials (lmaxx) =  3

     Subspace diagonalization in iterative solution of the eigenvalue problem:
     a serial algorithm will be used


     G-vector sticks info
     --------------------
     sticks:   dense  smooth     PW     G-vecs:    dense   smooth      PW
     Sum         451     253     85                 6423     2637     537



     bravais-lattice index     =            2
     lattice parameter (alat)  =       6.6780  a.u.
     unit-cell volume          =      74.4525 (a.u.)^3
     number of atoms/cell      =            1
     number of atomic types    =            1
     number of electrons       =        11.00
     number of Kohn-Sham states=           10
     kinetic-energy cutoff     =      40.0000  Ry
     charge density cutoff     =     300.0000  Ry
     convergence threshold     =      1.0E-06
     mixing beta               =       0.7000
     number of iterations used =            8  plain     mixing
     Exchange-correlation      = SLA PZ NOGX NOGC ( 1  1  0  0 0 0)

     celldm(1)=   6.678000  celldm(2)=   0.000000  celldm(3)=   0.000000
     celldm(4)=   0.000000  celldm(5)=   0.000000  celldm(6)=   0.000000

     crystal axes: (cart. coord. in units of alat)
               a(1) = (  -0.500000   0.000000   0.500000 )  
               a(2) = (   0.000000   0.500000   0.500000 )  
               a(3) = (  -0.500000   0.500000   0.000000 )  

     reciprocal axes: (cart. coord. in units 2 pi/alat)
               b(1) = ( -1.000000 -1.000000  1.000000 )  
               b(2) = (  1.000000  1.000000  1.000000 )  
               b(3) = ( -1.000000  1.000000 -1.000000 )  


     PseudoPot. # 1 for Cu read from file:
     ./\Cu.pz-n-van_ak.UPF
     MD5 check sum: 3309a1728b6661467a77298863cc3c06
     Pseudo is Ultrasoft + core correction, Zval = 11.0
     Generated by new atomic code, or converted to UPF format
     Using radial grid of  867 points,  6 beta functions with: 
                l(1) =   0
                l(2) =   0
                l(3) =   1
                l(4) =   1
                l(5) =   2
                l(6) =   2
     Q(r) pseudized with  8 coefficients,  rinner =    1.400   1.400   1.400
                                                       1.400   1.400

     atomic species   valence    mass     pseudopotential
        Cu            11.00     1.00000     Cu( 1.00)

     48 Sym. Ops., with inversion, found



   Cartesian axes

     site n.     atom                  positions (alat units)
         1           Cu  tau(   1) = (   0.0000000   0.0000000   0.0000000  )

     number of k points=    60  Methfessel-Paxton smearing, width (Ry)=  0.0100
                       cart. coord. in units 2pi/alat
        k(    1) = (  -0.0625000   0.0625000   0.0625000), wk =   0.0078125
        k(    2) = (  -0.1875000   0.1875000  -0.0625000), wk =   0.0234375
        k(    3) = (  -0.3125000   0.3125000  -0.1875000), wk =   0.0234375
        k(    4) = (  -0.4375000   0.4375000  -0.3125000), wk =   0.0234375
        k(    5) = (   0.4375000  -0.4375000   0.5625000), wk =   0.0234375
        k(    6) = (   0.3125000  -0.3125000   0.4375000), wk =   0.0234375
        k(    7) = (   0.1875000  -0.1875000   0.3125000), wk =   0.0234375
        k(    8) = (   0.0625000  -0.0625000   0.1875000), wk =   0.0234375
        k(    9) = (  -0.0625000   0.3125000   0.0625000), wk =   0.0234375
        k(   10) = (  -0.1875000   0.4375000  -0.0625000), wk =   0.0468750
        k(   11) = (  -0.3125000   0.5625000  -0.1875000), wk =   0.0468750
        k(   12) = (   0.5625000  -0.3125000   0.6875000), wk =   0.0468750
        k(   13) = (   0.4375000  -0.1875000   0.5625000), wk =   0.0468750
        k(   14) = (   0.3125000  -0.0625000   0.4375000), wk =   0.0468750
        k(   15) = (   0.1875000   0.0625000   0.3125000), wk =   0.0468750
        k(   16) = (  -0.0625000   0.5625000   0.0625000), wk =   0.0234375
        k(   17) = (  -0.1875000   0.6875000  -0.0625000), wk =   0.0468750
        k(   18) = (   0.6875000  -0.1875000   0.8125000), wk =   0.0468750
        k(   19) = (   0.5625000  -0.0625000   0.6875000), wk =   0.0468750
        k(   20) = (   0.4375000   0.0625000   0.5625000), wk =   0.0468750
        k(   21) = (   0.3125000   0.1875000   0.4375000), wk =   0.0468750
        k(   22) = (  -0.0625000   0.8125000   0.0625000), wk =   0.0234375
        k(   23) = (   0.8125000  -0.0625000   0.9375000), wk =   0.0468750
        k(   24) = (   0.6875000   0.0625000   0.8125000), wk =   0.0468750
        k(   25) = (   0.5625000   0.1875000   0.6875000), wk =   0.0468750
        k(   26) = (   0.4375000   0.3125000   0.5625000), wk =   0.0468750
        k(   27) = (  -0.0625000  -0.9375000   0.0625000), wk =   0.0234375
        k(   28) = (  -0.1875000  -0.8125000  -0.0625000), wk =   0.0468750
        k(   29) = (  -0.3125000  -0.6875000  -0.1875000), wk =   0.0468750
        k(   30) = (  -0.0625000  -0.6875000   0.0625000), wk =   0.0234375
        k(   31) = (  -0.1875000  -0.5625000  -0.0625000), wk =   0.0468750
        k(   32) = (  -0.0625000  -0.4375000   0.0625000), wk =   0.0234375
        k(   33) = (  -0.1875000   0.1875000   0.1875000), wk =   0.0078125
        k(   34) = (  -0.3125000   0.3125000   0.0625000), wk =   0.0234375
        k(   35) = (  -0.4375000   0.4375000  -0.0625000), wk =   0.0234375
        k(   36) = (   0.4375000  -0.4375000   0.8125000), wk =   0.0234375
        k(   37) = (   0.3125000  -0.3125000   0.6875000), wk =   0.0234375
        k(   38) = (   0.1875000  -0.1875000   0.5625000), wk =   0.0234375
        k(   39) = (  -0.1875000   0.4375000   0.1875000), wk =   0.0234375
        k(   40) = (  -0.3125000   0.5625000   0.0625000), wk =   0.0468750
        k(   41) = (   0.5625000  -0.3125000   0.9375000), wk =   0.0468750
        k(   42) = (   0.4375000  -0.1875000   0.8125000), wk =   0.0468750
        k(   43) = (   0.3125000  -0.0625000   0.6875000), wk =   0.0468750
        k(   44) = (  -0.1875000   0.6875000   0.1875000), wk =   0.0234375
        k(   45) = (   0.6875000  -0.1875000   1.0625000), wk =   0.0468750
        k(   46) = (   0.5625000  -0.0625000   0.9375000), wk =   0.0468750
        k(   47) = (   0.4375000   0.0625000   0.8125000), wk =   0.0468750
        k(   48) = (  -0.1875000  -1.0625000   0.1875000), wk =   0.0234375
        k(   49) = (  -0.3125000  -0.9375000   0.0625000), wk =   0.0468750
        k(   50) = (  -0.1875000  -0.8125000   0.1875000), wk =   0.0234375
        k(   51) = (  -0.3125000   0.3125000   0.3125000), wk =   0.0078125
        k(   52) = (  -0.4375000   0.4375000   0.1875000), wk =   0.0234375
        k(   53) = (   0.4375000  -0.4375000   1.0625000), wk =   0.0234375
        k(   54) = (   0.3125000  -0.3125000   0.9375000), wk =   0.0234375
        k(   55) = (  -0.3125000   0.5625000   0.3125000), wk =   0.0234375
        k(   56) = (   0.5625000  -0.3125000   1.1875000), wk =   0.0468750
        k(   57) = (   0.4375000  -0.1875000   1.0625000), wk =   0.0468750
        k(   58) = (  -0.3125000  -1.1875000   0.3125000), wk =   0.0234375
        k(   59) = (  -0.4375000   0.4375000   0.4375000), wk =   0.0078125
        k(   60) = (   0.4375000  -0.4375000   1.3125000), wk =   0.0234375

     Dense  grid:     6423 G-vectors     FFT dimensions: (  25,  25,  25)

     Smooth grid:     2637 G-vectors     FFT dimensions: (  20,  20,  20)

     Estimated max dynamical RAM per process >      26.57 MB

     Initial potential from superposition of free atoms

     starting charge   10.99145, renormalised to   11.00000
     Starting wfcs are    9 randomized atomic wfcs +    1 random wfcs

     total cpu time spent up to now is        1.4 secs

     Self-consistent Calculation

     iteration #  1     ecut=    40.00 Ry     beta= 0.70
     Davidson diagonalization with overlap
     ethr =  1.00E-02,  avg # of iterations =  3.9

     total cpu time spent up to now is        2.0 secs

     total energy              =    -121.03343391 Ry
     Harris-Foulkes estimate   =    -121.15554981 Ry
     estimated scf accuracy    <       0.15082290 Ry

     iteration #  2     ecut=    40.00 Ry     beta= 0.70
     Davidson diagonalization with overlap
     ethr =  1.37E-03,  avg # of iterations =  2.0

     total cpu time spent up to now is        2.5 secs

     total energy              =    -121.05889689 Ry
     Harris-Foulkes estimate   =    -121.23166712 Ry
     estimated scf accuracy    <       0.41587187 Ry

     iteration #  3     ecut=    40.00 Ry     beta= 0.70
     Davidson diagonalization with overlap
     ethr =  1.37E-03,  avg # of iterations =  2.0

     total cpu time spent up to now is        3.0 secs

     total energy              =    -121.12397627 Ry
     Harris-Foulkes estimate   =    -121.12436517 Ry
     estimated scf accuracy    <       0.00077449 Ry

     iteration #  4     ecut=    40.00 Ry     beta= 0.70
     Davidson diagonalization with overlap
     ethr =  7.04E-06,  avg # of iterations =  3.0

     total cpu time spent up to now is        3.6 secs

     total energy              =    -121.12423756 Ry
     Harris-Foulkes estimate   =    -121.12427049 Ry
     estimated scf accuracy    <       0.00008253 Ry

     iteration #  5     ecut=    40.00 Ry     beta= 0.70
     Davidson diagonalization with overlap
     ethr =  7.50E-07,  avg # of iterations =  1.1

     total cpu time spent up to now is        4.0 secs

     End of self-consistent calculation

          k =-0.0625 0.0625 0.0625 (   328 PWs)   bands (ev):

     3.6144  10.0943  10.1585  10.1585  11.0398  11.0398  35.8971  38.0342
    39.1927  39.1927

          k =-0.1875 0.1875-0.0625 (   318 PWs)   bands (ev):

     4.3931   9.9252  10.2891  10.2907  10.9198  11.1054  31.9315  34.7171
    38.7245  40.1847

          k =-0.3125 0.3125-0.1875 (   314 PWs)   bands (ev):

     6.1318   9.7935  10.2718  10.3331  11.0612  11.3940  25.4601  33.6068
    37.6490  39.1181

          k =-0.4375 0.4375-0.3125 (   320 PWs)   bands (ev):

     7.6881  10.1041  10.1839  10.5716  11.4818  11.9961  19.9323  33.3780
    36.1434  36.9816

          k = 0.4375-0.4375 0.5625 (   319 PWs)   bands (ev):

     7.9525  10.0325  10.1416  11.1253  11.7002  12.7778  17.6254  34.0448
    35.2488  35.6253

          k = 0.3125-0.3125 0.4375 (   319 PWs)   bands (ev):

     7.3218  10.1108  10.1614  10.2470  11.5462  11.5695  21.6125  34.7209
    34.9578  36.9133

          k = 0.1875-0.1875 0.3125 (   315 PWs)   bands (ev):

     5.4816   9.7827  10.3188  10.3560  11.0052  11.2206  27.5483  35.3121
    35.8139  39.7858

          k = 0.0625-0.0625 0.1875 (   322 PWs)   bands (ev):

     4.0082   9.9825  10.2460  10.2494  10.9346  11.0920  34.1224  36.7663
    36.8634  39.3970

          k =-0.0625 0.3125 0.0625 (   316 PWs)   bands (ev):

     4.7718   9.7651  10.4097  10.4266  10.7787  11.1888  32.2118  34.4742
    35.3515  37.6309

          k =-0.1875 0.4375-0.0625 (   316 PWs)   bands (ev):

     6.1671   9.5185  10.2732  10.6447  10.9559  11.4565  28.1198  30.8390
    35.0310  36.8084

          k =-0.3125 0.5625-0.1875 (   319 PWs)   bands (ev):

     7.8512   9.5775   9.9925  10.5449  11.5148  12.3659  22.1746  30.3337
    32.1359  36.3097

          k = 0.5625-0.3125 0.6875 (   317 PWs)   bands (ev):

     8.3919   9.6951  10.2907  10.4275  11.6677  14.4456  17.8788  29.8346
    31.1879  36.3574

          k = 0.4375-0.1875 0.5625 (   318 PWs)   bands (ev):

     8.1942   9.8007   9.9714  10.4656  11.4172  13.0968  20.4623  28.8069
    33.0177  37.4502

          k = 0.3125-0.0625 0.4375 (   316 PWs)   bands (ev):

     6.7838   9.5640  10.1382  10.6165  10.9070  11.8220  26.0554  28.9043
    35.8369  39.3826

          k = 0.1875 0.0625 0.3125 (   316 PWs)   bands (ev):

     5.1369   9.7584  10.3407  10.4341  10.8394  11.2443  29.9101  32.6842
    37.6454  39.4338

          k =-0.0625 0.5625 0.0625 (   315 PWs)   bands (ev):

     7.0079   9.1902  10.4600  10.9778  11.2140  11.4579  28.7719  30.3668
    30.7989  33.5756

          k =-0.1875 0.6875-0.0625 (   320 PWs)   bands (ev):

     8.0744   9.0135  10.3790  11.1932  11.5526  12.5658  25.3189  27.3913
    28.0114  34.7685

          k = 0.6875-0.1875 0.8125 (   318 PWs)   bands (ev):

     8.7123   9.1041  10.1444  10.9953  11.7089  15.4890  20.1197  24.9485
    28.3586  35.1630

          k = 0.5625-0.0625 0.6875 (   320 PWs)   bands (ev):

     9.0159   9.2922   9.7947  10.8529  11.4522  15.7504  19.9802  23.5695
    30.0689  36.1501

          k = 0.4375 0.0625 0.5625 (   318 PWs)   bands (ev):

     8.3348   9.5533   9.7650  10.7054  11.1638  13.1436  22.7532  25.8048
    32.7452  37.9421

          k = 0.3125 0.1875 0.4375 (   318 PWs)   bands (ev):

     6.9877   9.7375  10.1488  10.3892  11.2277  11.7234  23.6695  31.8543
    35.7696  37.5691

          k =-0.0625 0.8125 0.0625 (   322 PWs)   bands (ev):

     8.0985   8.7237  11.4099  11.5148  11.7301  13.2023  23.8318  26.4433
    27.7065  32.5358

          k = 0.8125-0.0625 0.9375 (   317 PWs)   bands (ev):

     8.3045   8.7325  11.0813  11.4909  11.8208  15.6564  21.5824  23.9433
    26.4767  34.0452

          k = 0.6875 0.0625 0.8125 (   318 PWs)   bands (ev):

     8.7400   9.0088  10.2943  11.1502  11.6874  17.5078  19.5923  22.2527
    27.9172  34.9682

          k = 0.5625 0.1875 0.6875 (   315 PWs)   bands (ev):

     8.7376   9.4422  10.0277  10.6485  11.5838  15.5783  18.2016  26.4915
    30.4299  36.2213

          k = 0.4375 0.3125 0.5625 (   319 PWs)   bands (ev):

     8.0421   9.9458  10.2528  10.5441  11.6271  12.9717  18.6534  32.0280
    33.5978  36.5190

          k =-0.0625-0.9375 0.0625 (   320 PWs)   bands (ev):

     8.1219   8.6170  11.6240  11.6480  11.8311  14.7718  21.4150  25.9101
    27.1253  32.3501

          k =-0.1875-0.8125-0.0625 (   320 PWs)   bands (ev):

     8.2992   8.8302  10.7950  11.4150  11.7159  14.0211  24.0540  24.4632
    26.9845  34.2788

          k =-0.3125-0.6875-0.1875 (   319 PWs)   bands (ev):

     8.4627   9.3240   9.9897  10.7666  11.6726  13.6412  20.9825  28.2989
    29.2576  35.5861

          k =-0.0625-0.6875 0.0625 (   321 PWs)   bands (ev):

     7.8390   8.9237  10.8955  11.2807  11.5978  11.8547  27.0754  27.5018
    28.8144  32.9257

          k =-0.1875-0.5625-0.0625 (   320 PWs)   bands (ev):

     7.2898   9.2556  10.1847  10.9072  11.2793  11.7903  26.5783  29.2148
    31.2346  35.5642

          k =-0.0625-0.4375 0.0625 (   313 PWs)   bands (ev):

     5.8361   9.4857  10.4453  10.6778  10.8447  11.3164  30.4032  32.2793
    33.9205  34.9960

          k =-0.1875 0.1875 0.1875 (   320 PWs)   bands (ev):

     4.7657   9.8958  10.3006  10.3006  11.0364  11.0364  29.6197  37.1188
    37.7248  37.7248

          k =-0.3125 0.3125 0.0625 (   317 PWs)   bands (ev):

     5.8357   9.6990  10.2771  10.4965  10.8046  11.4698  27.8479  30.6705
    39.0915  40.4395

          k =-0.4375 0.4375-0.0625 (   317 PWs)   bands (ev):

     7.5729   9.5861  10.0030  10.5873  10.9579  12.3421  24.2643  27.1999
    36.5447  36.9202

          k = 0.4375-0.4375 0.8125 (   320 PWs)   bands (ev):

     8.4804   9.6883  10.0891  10.4879  11.4626  14.1612  19.1058  27.4895
    33.4997  35.1319

          k = 0.3125-0.3125 0.6875 (   319 PWs)   bands (ev):

     8.4256   9.5495  10.1253  10.5397  11.7244  14.0356  19.0747  28.9444
    31.6823  34.3798

          k = 0.1875-0.1875 0.5625 (   322 PWs)   bands (ev):

     7.5062   9.3560  10.1038  10.6734  11.5999  11.8535  24.2284  31.2905
    31.3714  34.4702

          k =-0.1875 0.4375 0.1875 (   319 PWs)   bands (ev):

     6.4606   9.5907  10.2219  10.4803  11.2429  11.4221  25.7501  33.1437
    34.3210  36.3615

          k =-0.3125 0.5625 0.0625 (   318 PWs)   bands (ev):

     7.7848   9.3827   9.9366  10.8252  11.1832  12.3828  24.5391  27.4208
    31.8572  38.4720

          k = 0.5625-0.3125 0.9375 (   320 PWs)   bands (ev):

     8.8615   9.4054   9.6081  10.9001  11.4259  14.4624  21.5337  24.7450
    28.9793  39.3080

          k = 0.4375-0.1875 0.8125 (   317 PWs)   bands (ev):

     8.9646   9.2240   9.8678  10.8573  11.6529  16.4595  18.6117  25.8197
    27.0614  38.1385

          k = 0.3125-0.0625 0.6875 (   320 PWs)   bands (ev):

     8.4712   9.1931   9.9085  11.0707  11.4624  13.4334  23.3182  26.2432
    28.0959  37.7080

          k =-0.1875 0.6875 0.1875 (   320 PWs)   bands (ev):

     8.2354   9.1158  10.2153  10.9142  11.7209  12.9462  23.0010  27.7398
    29.8153  33.7774

          k = 0.6875-0.1875 1.0625 (   318 PWs)   bands (ev):

     8.6369   9.0420  10.1622  11.2248  11.6794  15.1025  22.4353  24.6284
    25.4849  37.1910

          k = 0.5625-0.0625 0.9375 (   317 PWs)   bands (ev):

     8.8741   9.3111   9.8009  11.0345  11.8158  18.4542  20.1505  22.6341
    23.7192  40.3160

          k = 0.4375 0.0625 0.8125 (   315 PWs)   bands (ev):

     8.9697   9.3135   9.6681  11.0146  11.6639  16.3411  20.6472  24.0243
    25.5361  40.2632

          k =-0.1875-1.0625 0.1875 (   318 PWs)   bands (ev):

     8.4667   8.8288  10.7859  11.3469  11.7427  16.3711  21.4597  21.9639
    28.2482  33.2510

          k =-0.3125-0.9375 0.0625 (   318 PWs)   bands (ev):

     8.6063   8.9648  10.4024  11.2527  11.8170  16.9545  21.7948  22.1500
    25.0361  36.9333

          k =-0.1875-0.8125 0.1875 (   319 PWs)   bands (ev):

     8.4593   8.9254  10.5463  11.1619  11.7643  14.5947  22.1083  24.3853
    28.7822  33.4140

          k =-0.3125 0.3125 0.3125 (   308 PWs)   bands (ev):

     6.6678   9.9789  10.2414  10.2414  11.3256  11.3256  23.3728  36.1087
    36.7801  36.7802

          k =-0.4375 0.4375 0.1875 (   317 PWs)   bands (ev):

     7.6180   9.9020  10.0515  10.3558  11.2333  12.2317  21.9072  30.1990
    36.6079  36.7703

          k = 0.4375-0.4375 1.0625 (   319 PWs)   bands (ev):

     8.7535   9.5644   9.7167  10.7069  11.2634  14.2156  21.2293  24.5113
    33.1349  35.1087

          k = 0.3125-0.3125 0.9375 (   315 PWs)   bands (ev):

     8.9183   9.1290  10.0724  10.9851  11.5438  17.3425  18.7248  22.7506
    30.3198  33.9519

          k =-0.3125 0.5625 0.3125 (   319 PWs)   bands (ev):

     7.9394   9.8711  10.1648  10.3514  11.6868  12.4904  20.1777  32.4786
    33.0079  35.0228

          k = 0.5625-0.3125 1.1875 (   317 PWs)   bands (ev):

     8.6437   9.4882   9.9328  10.6613  11.5856  14.5462  19.3404  27.7232
    29.3207  37.9850

          k = 0.4375-0.1875 1.0625 (   316 PWs)   bands (ev):

     9.0266   9.2010   9.8127  10.9805  11.6651  17.7278  19.0889  22.9639
    26.6747  38.1304

          k =-0.3125-1.1875 0.3125 (   312 PWs)   bands (ev):

     8.7571   9.2750  10.0892  10.7766  11.6596  15.9757  18.3737  25.5570
    30.7781  34.0782

          k =-0.4375 0.4375 0.4375 (   320 PWs)   bands (ev):

     7.7908  10.1088  10.1088  11.5510  11.6475  11.6475  18.4593  35.2839
    36.4056  36.4056

          k = 0.4375-0.4375 1.3125 (   317 PWs)   bands (ev):

     8.1870   9.8759  10.2764  10.5873  11.6318  13.7710  17.7473  30.8218
    34.2186  35.2329

     the Fermi energy is    13.3641 ev

!    total energy              =    -121.12425297 Ry
     Harris-Foulkes estimate   =    -121.12425303 Ry
     estimated scf accuracy    <       0.00000007 Ry

     The total energy is the sum of the following terms:

     one-electron contribution =     -25.84289239 Ry
     hartree contribution      =      29.89390605 Ry
     xc contribution           =     -42.10127367 Ry
     ewald contribution        =     -83.07402081 Ry
     smearing contrib. (-TS)   =       0.00002784 Ry

     convergence has been achieved in   5 iterations

     Writing output data file copper.save\

     init_run     :      1.36s CPU      0.63s WALL (       1 calls)
     electrons    :     14.81s CPU      2.65s WALL (       1 calls)

     Called by init_run:
     wfcinit      :      0.84s CPU      0.15s WALL (       1 calls)
     potinit      :      0.00s CPU      0.00s WALL (       1 calls)
     hinit0       :      0.44s CPU      0.45s WALL (       1 calls)

     Called by electrons:
     c_bands      :     10.88s CPU      1.97s WALL (       5 calls)
     sum_band     :      3.06s CPU      0.57s WALL (       5 calls)
     v_of_rho     :      0.00s CPU      0.00s WALL (       6 calls)
     newd         :      0.86s CPU      0.12s WALL (       6 calls)
     mix_rho      :      0.00s CPU      0.00s WALL (       5 calls)

     Called by c_bands:
     init_us_2    :      0.33s CPU      0.11s WALL (     660 calls)
     cegterg      :     10.08s CPU      1.82s WALL (     300 calls)

     Called by sum_band:
     sum_band:bec :      0.08s CPU      0.01s WALL (     300 calls)
     addusdens    :      0.64s CPU      0.12s WALL (       5 calls)

     Called by *egterg:
     h_psi        :      9.17s CPU      1.63s WALL (    1084 calls)
     s_psi        :      0.09s CPU      0.01s WALL (    1084 calls)
     g_psi        :      0.09s CPU      0.03s WALL (     724 calls)
     cdiaghg      :      0.64s CPU      0.11s WALL (    1024 calls)

     Called by h_psi:
     h_psi:pot    :      9.11s CPU      1.59s WALL (    1084 calls)
     h_psi:calbec :      0.00s CPU      0.01s WALL (    1084 calls)
     vloc_psi     :      9.02s CPU      1.56s WALL (    1084 calls)
     add_vuspsi   :      0.09s CPU      0.01s WALL (    1084 calls)

     General routines
     calbec       :      0.09s CPU      0.01s WALL (    1384 calls)
     fft          :      0.09s CPU      0.00s WALL (      34 calls)
     ffts         :      0.00s CPU      0.00s WALL (      11 calls)
     fftw         :      2.98s CPU      0.43s WALL (   19320 calls)
     interpolate  :      0.09s CPU      0.00s WALL (       6 calls)

     Parallel routines

     PWSCF        :     17.16s CPU      4.18s WALL


   This run was terminated on:  23:26:36  31Jul2021            

=------------------------------------------------------------------------------=
   JOB DONE.
=------------------------------------------------------------------------------=
