
     Program PWSCF v.6.4.1 starts on 31Jul2021 at 23:27: 0 

     This program is part of the open-source Quantum ESPRESSO suite
     for quantum simulation of materials; please cite
         "P. Giannozzi et al., J. Phys.:Condens. Matter 21 395502 (2009);
         "P. Giannozzi et al., J. Phys.:Condens. Matter 29 465901 (2017);
          URL http://www.quantum-espresso.org", 
     in publications or presentations arising from this work. More details at
     http://www.quantum-espresso.org/quote

     Parallel version (MPI & OpenMP), running on      12 processor cores
     Number of MPI processes:                 1
     Threads/MPI process:                    12

     MPI processes distributed on     1 nodes
     Waiting for input...
     Reading input from standard input
Warning: card EOF ignored

     Current dimensions of program PWSCF are:
     Max number of different atomic species (ntypx) = 10
     Max number of k-points (npk) =  40000
     Max angular momentum in pseudopotentials (lmaxx) =  3

     Atomic positions and unit cell read from directory:
     ./\copper.save\


     Subspace diagonalization in iterative solution of the eigenvalue problem:
     a serial algorithm will be used


     G-vector sticks info
     --------------------
     sticks:   dense  smooth     PW     G-vecs:    dense   smooth      PW
     Sum         451     253     85                 6423     2637     531



     bravais-lattice index     =            2
     lattice parameter (alat)  =       6.6780  a.u.
     unit-cell volume          =      74.4525 (a.u.)^3
     number of atoms/cell      =            1
     number of atomic types    =            1
     number of electrons       =        11.00
     number of Kohn-Sham states=            8
     kinetic-energy cutoff     =      40.0000  Ry
     charge density cutoff     =     300.0000  Ry
     Exchange-correlation      = SLA PZ NOGX NOGC ( 1  1  0  0 0 0)

     celldm(1)=   6.678000  celldm(2)=   0.000000  celldm(3)=   0.000000
     celldm(4)=   0.000000  celldm(5)=   0.000000  celldm(6)=   0.000000

     crystal axes: (cart. coord. in units of alat)
               a(1) = (  -0.500000   0.000000   0.500000 )  
               a(2) = (   0.000000   0.500000   0.500000 )  
               a(3) = (  -0.500000   0.500000   0.000000 )  

     reciprocal axes: (cart. coord. in units 2 pi/alat)
               b(1) = ( -1.000000 -1.000000  1.000000 )  
               b(2) = (  1.000000  1.000000  1.000000 )  
               b(3) = ( -1.000000  1.000000 -1.000000 )  


     PseudoPot. # 1 for Cu read from file:
     ./\Cu.pz-n-van_ak.UPF
     MD5 check sum: 3d62ae50e5f43d0bf6162b4c73791b21
     Pseudo is Ultrasoft + core correction, Zval = 11.0
     Generated by new atomic code, or converted to UPF format
     Using radial grid of  867 points,  6 beta functions with: 
                l(1) =   0
                l(2) =   0
                l(3) =   1
                l(4) =   1
                l(5) =   2
                l(6) =   2
     Q(r) pseudized with  8 coefficients,  rinner =    1.400   1.400   1.400
                                                       1.400   1.400

     atomic species   valence    mass     pseudopotential
        Cu            11.00     1.00000     Cu( 1.00)

     48 Sym. Ops., with inversion, found



   Cartesian axes

     site n.     atom                  positions (alat units)
         1           Cu  tau(   1) = (   0.0000000   0.0000000   0.0000000  )

     number of k points=   251  Methfessel-Paxton smearing, width (Ry)=  0.0100

     Number of k-points >= 100: set verbosity='high' to print them.

     Dense  grid:     6423 G-vectors     FFT dimensions: (  25,  25,  25)

     Smooth grid:     2637 G-vectors     FFT dimensions: (  20,  20,  20)

     Estimated max dynamical RAM per process >      21.86 MB

     The potential is recalculated from file :
     ./\copper.save\charge-density

     Starting wfcs are    9 randomized atomic wfcs

     Band Structure Calculation
     Davidson diagonalization with overlap

     ethr =  9.09E-09,  avg # of iterations = 16.6

     total cpu time spent up to now is        7.6 secs

     End of band structure calculation

     Number of k-points >= 100: set verbosity='high' to print the bands.

     Writing output data file copper.save\

     init_run     :      0.58s CPU      0.48s WALL (       1 calls)
     electrons    :     34.81s CPU      6.16s WALL (       1 calls)

     Called by init_run:
     wfcinit      :      0.00s CPU      0.00s WALL (       1 calls)
     potinit      :      0.06s CPU      0.00s WALL (       1 calls)
     hinit0       :      0.42s CPU      0.45s WALL (       1 calls)

     Called by electrons:
     c_bands      :     34.81s CPU      6.16s WALL (       1 calls)
     v_of_rho     :      0.00s CPU      0.00s WALL (       1 calls)
     newd         :      0.09s CPU      0.02s WALL (       1 calls)

     Called by c_bands:
     init_us_2    :      0.58s CPU      0.03s WALL (     251 calls)
     cegterg      :     29.73s CPU      5.44s WALL (     315 calls)

     Called by sum_band:

     Called by *egterg:
     h_psi        :     24.00s CPU      4.37s WALL (    4737 calls)
     s_psi        :      0.09s CPU      0.05s WALL (    4737 calls)
     g_psi        :      0.67s CPU      0.15s WALL (    4171 calls)
     cdiaghg      :      3.09s CPU      0.51s WALL (    4422 calls)

     Called by h_psi:
     h_psi:pot    :     23.31s CPU      4.21s WALL (    4737 calls)
     h_psi:calbec :      0.17s CPU      0.05s WALL (    4737 calls)
     vloc_psi     :     22.95s CPU      4.11s WALL (    4737 calls)
     add_vuspsi   :      0.09s CPU      0.04s WALL (    4737 calls)

     General routines
     calbec       :      0.17s CPU      0.05s WALL (    4737 calls)
     fft          :      0.00s CPU      0.00s WALL (       6 calls)
     ffts         :      0.00s CPU      0.00s WALL (       1 calls)
     fftw         :      5.50s CPU      0.95s WALL (   44326 calls)
     interpolate  :      0.00s CPU      0.00s WALL (       1 calls)
     davcio       :      0.00s CPU      0.03s WALL (     502 calls)

     Parallel routines

     PWSCF        :     36.92s CPU      8.11s WALL


   This run was terminated on:  23:27: 8  31Jul2021            

=------------------------------------------------------------------------------=
   JOB DONE.
=------------------------------------------------------------------------------=
