
     Program BANDS v.6.4.1 starts on 31Jul2021 at 23:28:10 

     This program is part of the open-source Quantum ESPRESSO suite
     for quantum simulation of materials; please cite
         "P. Giannozzi et al., J. Phys.:Condens. Matter 21 395502 (2009);
         "P. Giannozzi et al., J. Phys.:Condens. Matter 29 465901 (2017);
          URL http://www.quantum-espresso.org", 
     in publications or presentations arising from this work. More details at
     http://www.quantum-espresso.org/quote

     Parallel version (MPI & OpenMP), running on      12 processor cores
     Number of MPI processes:                 1
     Threads/MPI process:                    12

     MPI processes distributed on     1 nodes

     Reading data from directory:
     ./\copper.save\

     IMPORTANT: XC functional enforced from input :
     Exchange-correlation      = PZ ( 1  1  0  0 0 0)
     Any further DFT definition will be discarded
     Please, verify this is what you really want


     G-vector sticks info
     --------------------
     sticks:   dense  smooth     PW     G-vecs:    dense   smooth      PW
     Sum         451     253     85                 6423     2637     531

     high-symmetry point:  0.0000 0.0000 0.0000   x coordinate   0.0000
     high-symmetry point:  0.0000 1.0000 0.0000   x coordinate   1.0000
     high-symmetry point:  0.5000 1.0000 0.0000   x coordinate   1.5000
     high-symmetry point:  0.5000 0.5000 0.5000   x coordinate   2.2071
     high-symmetry point:  0.0000 0.0000 0.0000   x coordinate   3.0731
     high-symmetry point:  0.7500 0.7500 0.0000   x coordinate   4.1338

     Plottable bands (eV) written to file bands.gnu
     Bands written to file bands

 **************************************************************************

                    xk=(   0.00000,   0.00000,   0.00000  )

     point group O_h (m-3m) 
     there are 10 classes
     the character table:

       E     8C3   3C2   6C4   6C2'  i     8S6   3s_h  6S4   6s_d 
A_1g   1.00  1.00  1.00  1.00  1.00  1.00  1.00  1.00  1.00  1.00
A_2g   1.00  1.00  1.00 -1.00 -1.00  1.00  1.00  1.00 -1.00 -1.00
E_g    2.00 -1.00  2.00  0.00  0.00  2.00 -1.00  2.00  0.00  0.00
T_1g   3.00  0.00 -1.00  1.00 -1.00  3.00  0.00 -1.00  1.00 -1.00
T_2g   3.00  0.00 -1.00 -1.00  1.00  3.00  0.00 -1.00 -1.00  1.00
A_1u   1.00  1.00  1.00  1.00  1.00 -1.00 -1.00 -1.00 -1.00 -1.00
A_2u   1.00  1.00  1.00 -1.00 -1.00 -1.00 -1.00 -1.00  1.00  1.00
E_u    2.00 -1.00  2.00  0.00  0.00 -2.00  1.00 -2.00  0.00  0.00
T_1u   3.00  0.00 -1.00  1.00 -1.00 -3.00  0.00  1.00 -1.00  1.00
T_2u   3.00  0.00 -1.00 -1.00  1.00 -3.00  0.00  1.00  1.00 -1.00

     the symmetry operations in each class and the name of the first element:

     E        1
                                                                 
     8C3     17   19   20   18   24   21   22   23
                                                                 
     3C2      2    4    3
                                                                 
     6C4      7    8   15   16   12   11
                                                                 
     6C2'     5    6   14   13   10    9
                                                                 
     i       25
                                                                 
     8S6     41   43   44   42   48   45   46   47
                                                                 
     3s_h    26   28   27
                                                                 
     6S4     31   32   39   40   36   35
                                                                 
     6s_d    29   30   38   37   34   33
                                                                 

     Band symmetry, O_h (m-3m)  point group:

     e(  1 -  1) =      3.46496  eV     1   --> A_1g G_1   G_1+
     e(  2 -  4) =     10.13237  eV     3   --> T_2g G_25' G_5+
     e(  5 -  6) =     11.05608  eV     2   --> E_g  G_12  G_3+
     e(  7 -  7) =     36.71893  eV     1   --> A_2u G_2'  G_2-
     e(  8 -  8) =     39.63396  eV     1   -->   ?

 **************************************************************************

 **************************************************************************

                    xk=(   0.00000,   0.02000,   0.00000  )

     point group C_4v (4mm) 
     there are  5 classes
     the character table:

       E     2C4   C2    2s_v  2s_d 
A_1    1.00  1.00  1.00  1.00  1.00
A_2    1.00  1.00  1.00 -1.00 -1.00
B_1    1.00 -1.00  1.00  1.00 -1.00
B_2    1.00 -1.00  1.00 -1.00  1.00
E      2.00  0.00 -2.00  0.00  0.00

     the symmetry operations in each class and the name of the first element:

     E        1
                                                                 
     2C4      3    4
                                                                 
     C2       2
                                                                 
     2s_v     5    6
                                                                 
     2s_d     7    8
                                                                 

     Band symmetry, C_4v (4mm)  point group:

     e(  1 -  1) =      3.47008  eV     1   --> A_1  G_1 D_1   
     e(  2 -  2) =     10.13073  eV     1   --> B_2  G_4 D_2'  
     e(  3 -  4) =     10.13366  eV     2   --> E    G_5 D_5   
     e(  5 -  5) =     11.05458  eV     1   --> A_1  G_1 D_1   
     e(  6 -  6) =     11.05668  eV     1   --> B_1  G_3 D_2   
     e(  7 -  7) =     36.70104  eV     1   --> B_2  G_4 D_2'  
     e(  8 -  8) =     39.56453  eV     1   -->   ?

 **************************************************************************

 **************************************************************************

                    xk=(   0.00000,   0.04000,   0.00000  )

     Band symmetry, C_4v (4mm)  point group:

     e(  1 -  1) =      3.48544  eV     1   --> A_1  G_1 D_1   
     e(  2 -  2) =     10.12580  eV     1   --> B_2  G_4 D_2'  
     e(  3 -  4) =     10.13753  eV     2   --> E    G_5 D_5   
     e(  5 -  5) =     11.05008  eV     1   --> A_1  G_1 D_1   
     e(  6 -  6) =     11.05847  eV     1   --> B_1  G_3 D_2   
     e(  7 -  7) =     36.64850  eV     1   --> B_2  G_4 D_2'  
     e(  8 -  8) =     39.37470  eV     1   -->   ?

 **************************************************************************

 **************************************************************************

                    xk=(   0.00000,   0.06000,   0.00000  )

     Band symmetry, C_4v (4mm)  point group:

     e(  1 -  1) =      3.51103  eV     1   --> A_1  G_1 D_1   
     e(  2 -  2) =     10.11762  eV     1   --> B_2  G_4 D_2'  
     e(  3 -  4) =     10.14398  eV     2   --> E    G_5 D_5   
     e(  5 -  5) =     11.04261  eV     1   --> A_1  G_1 D_1   
     e(  6 -  6) =     11.06144  eV     1   --> B_1  G_3 D_2   
     e(  7 -  7) =     36.56436  eV     1   --> B_2  G_4 D_2'  
     e(  8 -  8) =     39.10186  eV     1   -->   ?

 **************************************************************************

 **************************************************************************

                    xk=(   0.00000,   0.08000,   0.00000  )

     Band symmetry, C_4v (4mm)  point group:

     e(  1 -  1) =      3.54679  eV     1   --> A_1  G_1 D_1   
     e(  2 -  2) =     10.10623  eV     1   --> B_2  G_4 D_2'  
     e(  3 -  4) =     10.15300  eV     2   --> E    G_5 D_5   
     e(  5 -  5) =     11.03222  eV     1   --> A_1  G_1 D_1   
     e(  6 -  6) =     11.06559  eV     1   --> B_1  G_3 D_2   
     e(  7 -  7) =     36.45302  eV     1   --> B_2  G_4 D_2'  
     e(  8 -  8) =     38.77823  eV     1   -->   ?

 **************************************************************************

 **************************************************************************

                    xk=(   0.00000,   0.10000,   0.00000  )

     Band symmetry, C_4v (4mm)  point group:

     e(  1 -  1) =      3.59270  eV     1   --> A_1  G_1 D_1   
     e(  2 -  2) =     10.09167  eV     1   --> B_2  G_4 D_2'  
     e(  3 -  4) =     10.16457  eV     2   --> E    G_5 D_5   
     e(  5 -  5) =     11.01899  eV     1   --> A_1  G_1 D_1   
     e(  6 -  6) =     11.07090  eV     1   --> B_1  G_3 D_2   
     e(  7 -  7) =     36.31944  eV     1   --> B_2  G_4 D_2'  
     e(  8 -  8) =     38.42469  eV     1   -->   ?

 **************************************************************************

 **************************************************************************

                    xk=(   0.00000,   0.12000,   0.00000  )

     Band symmetry, C_4v (4mm)  point group:

     e(  1 -  1) =      3.64869  eV     1   --> A_1  G_1 D_1   
     e(  2 -  2) =     10.07402  eV     1   --> B_2  G_4 D_2'  
     e(  3 -  4) =     10.17869  eV     2   --> E    G_5 D_5   
     e(  5 -  5) =     11.00299  eV     1   --> A_1  G_1 D_1   
     e(  6 -  6) =     11.07735  eV     1   --> B_1  G_3 D_2   
     e(  7 -  7) =     36.16855  eV     1   --> B_2  G_4 D_2'  
     e(  8 -  8) =     38.05370  eV     1   -->   ?

 **************************************************************************

 **************************************************************************

                    xk=(   0.00000,   0.14000,   0.00000  )

     Band symmetry, C_4v (4mm)  point group:

     e(  1 -  1) =      3.71467  eV     1   --> A_1  G_1 D_1   
     e(  2 -  2) =     10.05335  eV     1   --> B_2  G_4 D_2'  
     e(  3 -  4) =     10.19533  eV     2   --> E    G_5 D_5   
     e(  5 -  5) =     10.98434  eV     1   --> A_1  G_1 D_1   
     e(  6 -  6) =     11.08492  eV     1   --> B_1  G_3 D_2   
     e(  7 -  7) =     36.00484  eV     1   --> B_2  G_4 D_2'  
     e(  8 -  8) =     37.67271  eV     1   -->   ?

 **************************************************************************

 **************************************************************************

                    xk=(   0.00000,   0.16000,   0.00000  )

     Band symmetry, C_4v (4mm)  point group:

     e(  1 -  1) =      3.79057  eV     1   --> A_1  G_1 D_1   
     e(  2 -  2) =     10.02978  eV     1   --> B_2  G_4 D_2'  
     e(  3 -  4) =     10.21447  eV     2   --> E    G_5 D_5   
     e(  5 -  5) =     10.96317  eV     1   --> A_1  G_1 D_1   
     e(  6 -  6) =     11.09358  eV     1   --> B_1  G_3 D_2   
     e(  7 -  7) =     35.83218  eV     1   --> B_2  G_4 D_2'  
     e(  8 -  8) =     37.28635  eV     1   -->   ?

 **************************************************************************

 **************************************************************************

                    xk=(   0.00000,   0.18000,   0.00000  )

     Band symmetry, C_4v (4mm)  point group:

     e(  1 -  1) =      3.87626  eV     1   --> A_1  G_1 D_1   
     e(  2 -  2) =     10.00340  eV     1   --> B_2  G_4 D_2'  
     e(  3 -  4) =     10.23609  eV     2   --> E    G_5 D_5   
     e(  5 -  5) =     10.93965  eV     1   --> A_1  G_1 D_1   
     e(  6 -  6) =     11.10329  eV     1   --> B_1  G_3 D_2   
     e(  7 -  7) =     35.65379  eV     1   --> B_2  G_4 D_2'  
     e(  8 -  8) =     36.89761  eV     1   -->   ?

 **************************************************************************

 **************************************************************************

                    xk=(   0.00000,   0.20000,   0.00000  )

     Band symmetry, C_4v (4mm)  point group:

     e(  1 -  1) =      3.97162  eV     1   --> A_1  G_1 D_1   
     e(  2 -  2) =      9.97435  eV     1   --> B_2  G_4 D_2'  
     e(  3 -  4) =     10.26014  eV     2   --> E    G_5 D_5   
     e(  5 -  5) =     10.91396  eV     1   --> A_1  G_1 D_1   
     e(  6 -  6) =     11.11403  eV     1   --> B_1  G_3 D_2   
     e(  7 -  7) =     35.47229  eV     1   --> B_2  G_4 D_2'  
     e(  8 -  8) =     36.50853  eV     1   -->   ?

 **************************************************************************

 **************************************************************************

                    xk=(   0.00000,   0.22000,   0.00000  )

     Band symmetry, C_4v (4mm)  point group:

     e(  1 -  1) =      4.07648  eV     1   --> A_1  G_1 D_1   
     e(  2 -  2) =      9.94275  eV     1   --> B_2  G_4 D_2'  
     e(  3 -  4) =     10.28661  eV     2   --> E    G_5 D_5   
     e(  5 -  5) =     10.88632  eV     1   --> A_1  G_1 D_1   
     e(  6 -  6) =     11.12575  eV     1   --> B_1  G_3 D_2   
     e(  7 -  7) =     35.28976  eV     1   --> B_2  G_4 D_2'  
     e(  8 -  8) =     36.12057  eV     1   -->   ?

 **************************************************************************

 **************************************************************************

                    xk=(   0.00000,   0.24000,   0.00000  )

     Band symmetry, C_4v (4mm)  point group:

     e(  1 -  1) =      4.19067  eV     1   --> A_1  G_1 D_1   
     e(  2 -  2) =      9.90875  eV     1   --> B_2  G_4 D_2'  
     e(  3 -  4) =     10.31545  eV     2   --> E    G_5 D_5   
     e(  5 -  5) =     10.85698  eV     1   --> A_1  G_1 D_1   
     e(  6 -  6) =     11.13841  eV     1   --> B_1  G_3 D_2   
     e(  7 -  7) =     35.10785  eV     1   --> B_2  G_4 D_2'  
     e(  8 -  8) =     35.73477  eV     1   -->   ?

 **************************************************************************

 **************************************************************************

                    xk=(   0.00000,   0.26000,   0.00000  )

     Band symmetry, C_4v (4mm)  point group:

     e(  1 -  1) =      4.31397  eV     1   --> A_1  G_1 D_1   
     e(  2 -  2) =      9.87251  eV     1   --> B_2  G_4 D_2'  
     e(  3 -  4) =     10.34660  eV     2   --> E    G_5 D_5   
     e(  5 -  5) =     10.82621  eV     1   --> A_1  G_1 D_1   
     e(  6 -  6) =     11.15196  eV     1   --> B_1  G_3 D_2   
     e(  7 -  7) =     34.92786  eV     1   --> B_2  G_4 D_2'  
     e(  8 -  8) =     35.35199  eV     1   -->   ?

 **************************************************************************

 **************************************************************************

                    xk=(   0.00000,   0.28000,   0.00000  )

     Band symmetry, C_4v (4mm)  point group:

     e(  1 -  1) =      4.44614  eV     1   --> A_1  G_1 D_1   
     e(  2 -  2) =      9.83420  eV     1   --> B_2  G_4 D_2'  
     e(  3 -  4) =     10.38002  eV     2   --> E    G_5 D_5   
     e(  5 -  5) =     10.79436  eV     1   --> A_1  G_1 D_1   
     e(  6 -  6) =     11.16636  eV     1   --> B_1  G_3 D_2   
     e(  7 -  7) =     34.75081  eV     1   --> B_2  G_4 D_2'  
     e(  8 -  8) =     34.97289  eV     1   -->   ?

 **************************************************************************

 **************************************************************************

                    xk=(   0.00000,   0.30000,   0.00000  )

     Band symmetry, C_4v (4mm)  point group:

     e(  1 -  1) =      4.58688  eV     1   --> A_1  G_1 D_1   
     e(  2 -  2) =      9.79397  eV     1   --> B_2  G_4 D_2'  
     e(  3 -  4) =     10.41564  eV     2   --> E    G_5 D_5   
     e(  5 -  5) =     10.76179  eV     1   --> A_1  G_1 D_1   
     e(  6 -  6) =     11.18154  eV     1   --> B_1  G_3 D_2   
     e(  7 -  7) =     34.57746  eV     1   --> B_2  G_4 D_2'  
     e(  8 -  8) =     34.59801  eV     1   -->   ?

 **************************************************************************

 **************************************************************************

                    xk=(   0.00000,   0.32000,   0.00000  )

     Band symmetry, C_4v (4mm)  point group:

     e(  1 -  1) =      4.73586  eV     1   --> A_1  G_1 D_1   
     e(  2 -  2) =      9.75201  eV     1   --> B_2  G_4 D_2'  
     e(  3 -  4) =     10.45341  eV     2   --> E    G_5 D_5   
     e(  5 -  5) =     10.72893  eV     1   --> A_1  G_1 D_1   
     e(  6 -  6) =     11.19745  eV     1   --> B_1  G_3 D_2   
     e(  7 -  8) =     34.22783  eV     2   --> E    G_5 D_5   

 **************************************************************************

 **************************************************************************

                    xk=(   0.00000,   0.34000,   0.00000  )

     Band symmetry, C_4v (4mm)  point group:

     e(  1 -  1) =      4.89268  eV     1   --> A_1  G_1 D_1   
     e(  2 -  2) =      9.70851  eV     1   --> B_2  G_4 D_2'  
     e(  3 -  4) =     10.49323  eV     2   --> E    G_5 D_5   
     e(  5 -  5) =     10.69626  eV     1   --> A_1  G_1 D_1   
     e(  6 -  6) =     11.21403  eV     1   --> B_1  G_3 D_2   
     e(  7 -  8) =     33.86278  eV     2   --> E    G_5 D_5   

 **************************************************************************

 **************************************************************************

                    xk=(   0.00000,   0.36000,   0.00000  )

     Band symmetry, C_4v (4mm)  point group:

     e(  1 -  1) =      5.05688  eV     1   --> A_1  G_1 D_1   
     e(  2 -  2) =      9.66366  eV     1   --> B_2  G_4 D_2'  
     e(  3 -  4) =     10.53504  eV     2   --> E    G_5 D_5   
     e(  5 -  5) =     10.66436  eV     1   --> A_1  G_1 D_1   
     e(  6 -  6) =     11.23123  eV     1   --> B_1  G_3 D_2   
     e(  7 -  8) =     33.50324  eV     2   --> E    G_5 D_5   

 **************************************************************************

 **************************************************************************

                    xk=(   0.00000,   0.38000,   0.00000  )

     Band symmetry, C_4v (4mm)  point group:

     e(  1 -  1) =      5.22791  eV     1   --> A_1  G_1 D_1   
     e(  2 -  2) =      9.61764  eV     1   --> B_2  G_4 D_2'  
     e(  3 -  4) =     10.57874  eV     2   --> E    G_5 D_5   
     e(  5 -  5) =     10.63387  eV     1   --> A_1  G_1 D_1   
     e(  6 -  6) =     11.24896  eV     1   --> B_1  G_3 D_2   
     e(  7 -  8) =     33.14957  eV     2   --> E    G_5 D_5   

 **************************************************************************

 **************************************************************************

                    xk=(   0.00000,   0.40000,   0.00000  )

     Band symmetry, C_4v (4mm)  point group:

     e(  1 -  1) =      5.40510  eV     1   --> A_1  G_1 D_1   
     e(  2 -  2) =      9.57065  eV     1   --> B_2  G_4 D_2'  
     e(  3 -  3) =     10.60554  eV     1   --> A_1  G_1 D_1   
     e(  4 -  5) =     10.62422  eV     2   --> E    G_5 D_5   
     e(  6 -  6) =     11.26718  eV     1   --> B_1  G_3 D_2   
     e(  7 -  8) =     32.80209  eV     2   --> E    G_5 D_5   

 **************************************************************************

 **************************************************************************

                    xk=(   0.00000,   0.42000,   0.00000  )

     Band symmetry, C_4v (4mm)  point group:

     e(  1 -  1) =      5.58769  eV     1   --> A_1  G_1 D_1   
     e(  2 -  2) =      9.52290  eV     1   --> B_2  G_4 D_2'  
     e(  3 -  3) =     10.58024  eV     1   --> A_1  G_1 D_1   
     e(  4 -  5) =     10.67137  eV     2   --> E    G_5 D_5   
     e(  6 -  6) =     11.28580  eV     1   --> B_1  G_3 D_2   
     e(  7 -  8) =     32.46114  eV     2   --> E    G_5 D_5   

 **************************************************************************

 **************************************************************************

                    xk=(   0.00000,   0.44000,   0.00000  )

     Band symmetry, C_4v (4mm)  point group:

     e(  1 -  1) =      5.77475  eV     1   --> A_1  G_1 D_1   
     e(  2 -  2) =      9.47457  eV     1   --> B_2  G_4 D_2'  
     e(  3 -  3) =     10.55900  eV     1   --> A_1  G_1 D_1   
     e(  4 -  5) =     10.72008  eV     2   --> E    G_5 D_5   
     e(  6 -  6) =     11.30475  eV     1   --> B_1  G_3 D_2   
     e(  7 -  8) =     32.12703  eV     2   --> E    G_5 D_5   

 **************************************************************************

 **************************************************************************

                    xk=(   0.00000,   0.46000,   0.00000  )

     Band symmetry, C_4v (4mm)  point group:

     e(  1 -  1) =      5.96515  eV     1   --> A_1  G_1 D_1   
     e(  2 -  2) =      9.42587  eV     1   --> B_2  G_4 D_2'  
     e(  3 -  3) =     10.54300  eV     1   --> A_1  G_1 D_1   
     e(  4 -  5) =     10.77020  eV     2   --> E    G_5 D_5   
     e(  6 -  6) =     11.32396  eV     1   --> B_1  G_3 D_2   
     e(  7 -  8) =     31.80007  eV     2   --> E    G_5 D_5   

 **************************************************************************

 **************************************************************************

                    xk=(   0.00000,   0.48000,   0.00000  )

     Band symmetry, C_4v (4mm)  point group:

     e(  1 -  1) =      6.15759  eV     1   --> A_1  G_1 D_1   
     e(  2 -  2) =      9.37699  eV     1   --> B_2  G_4 D_2'  
     e(  3 -  3) =     10.53366  eV     1   --> A_1  G_1 D_1   
     e(  4 -  5) =     10.82160  eV     2   --> E    G_5 D_5   
     e(  6 -  6) =     11.34336  eV     1   --> B_1  G_3 D_2   
     e(  7 -  8) =     31.48059  eV     2   --> E    G_5 D_5   

 **************************************************************************

 **************************************************************************

                    xk=(   0.00000,   0.50000,   0.00000  )

     Band symmetry, C_4v (4mm)  point group:

     e(  1 -  1) =      6.35049  eV     1   --> A_1  G_1 D_1   
     e(  2 -  2) =      9.32813  eV     1   --> B_2  G_4 D_2'  
     e(  3 -  3) =     10.53260  eV     1   --> A_1  G_1 D_1   
     e(  4 -  5) =     10.87411  eV     2   --> E    G_5 D_5   
     e(  6 -  6) =     11.36287  eV     1   --> B_1  G_3 D_2   
     e(  7 -  8) =     31.16888  eV     2   --> E    G_5 D_5   

 **************************************************************************

 **************************************************************************

                    xk=(   0.00000,   0.52000,   0.00000  )

     Band symmetry, C_4v (4mm)  point group:

     e(  1 -  1) =      6.54201  eV     1   --> A_1  G_1 D_1   
     e(  2 -  2) =      9.27947  eV     1   --> B_2  G_4 D_2'  
     e(  3 -  3) =     10.54171  eV     1   --> A_1  G_1 D_1   
     e(  4 -  5) =     10.92756  eV     2   --> E    G_5 D_5   
     e(  6 -  6) =     11.38242  eV     1   --> B_1  G_3 D_2   
     e(  7 -  8) =     30.86528  eV     2   --> E    G_5 D_5   

 **************************************************************************

 **************************************************************************

                    xk=(   0.00000,   0.54000,   0.00000  )

     Band symmetry, C_4v (4mm)  point group:

     e(  1 -  1) =      6.73000  eV     1   --> A_1  G_1 D_1   
     e(  2 -  2) =      9.23122  eV     1   --> B_2  G_4 D_2'  
     e(  3 -  3) =     10.56317  eV     1   --> A_1  G_1 D_1   
     e(  4 -  5) =     10.98177  eV     2   --> E    G_5 D_5   
     e(  6 -  6) =     11.40192  eV     1   --> B_1  G_3 D_2   
     e(  7 -  8) =     30.57010  eV     2   --> E    G_5 D_5   

 **************************************************************************

 **************************************************************************

                    xk=(   0.00000,   0.56000,   0.00000  )

     Band symmetry, C_4v (4mm)  point group:

     e(  1 -  1) =      6.91206  eV     1   --> A_1  G_1 D_1   
     e(  2 -  2) =      9.18356  eV     1   --> B_2  G_4 D_2'  
     e(  3 -  3) =     10.59937  eV     1   --> A_1  G_1 D_1   
     e(  4 -  5) =     11.03654  eV     2   --> E    G_5 D_5   
     e(  6 -  6) =     11.42130  eV     1   --> B_1  G_3 D_2   
     e(  7 -  8) =     30.28367  eV     2   --> E    G_5 D_5   

 **************************************************************************

 **************************************************************************

                    xk=(   0.00000,   0.58000,   0.00000  )

     Band symmetry, C_4v (4mm)  point group:

     e(  1 -  1) =      7.08561  eV     1   --> A_1  G_1 D_1   
     e(  2 -  2) =      9.13665  eV     1   --> B_2  G_4 D_2'  
     e(  3 -  3) =     10.65287  eV     1   --> A_1  G_1 D_1   
     e(  4 -  5) =     11.09166  eV     2   --> E    G_5 D_5   
     e(  6 -  6) =     11.44048  eV     1   --> B_1  G_3 D_2   
     e(  7 -  8) =     30.00633  eV     2   --> E    G_5 D_5   

 **************************************************************************

 **************************************************************************

                    xk=(   0.00000,   0.60000,   0.00000  )

     Band symmetry, C_4v (4mm)  point group:

     e(  1 -  1) =      7.24801  eV     1   --> A_1  G_1 D_1   
     e(  2 -  2) =      9.09069  eV     1   --> B_2  G_4 D_2'  
     e(  3 -  3) =     10.72625  eV     1   --> A_1  G_1 D_1   
     e(  4 -  5) =     11.14691  eV     2   --> E    G_5 D_5   
     e(  6 -  6) =     11.45939  eV     1   --> B_1  G_3 D_2   
     e(  7 -  7) =     29.57435  eV     1   --> A_1  G_1 D_1   
     e(  8 -  8) =     29.73841  eV     1   -->   ?

 **************************************************************************

 **************************************************************************

                    xk=(   0.00000,   0.62000,   0.00000  )

     Band symmetry, C_4v (4mm)  point group:

     e(  1 -  1) =      7.39678  eV     1   --> A_1  G_1 D_1   
     e(  2 -  2) =      9.04585  eV     1   --> B_2  G_4 D_2'  
     e(  3 -  3) =     10.82185  eV     1   --> A_1  G_1 D_1   
     e(  4 -  5) =     11.20204  eV     2   --> E    G_5 D_5   
     e(  6 -  6) =     11.47794  eV     1   --> B_1  G_3 D_2   
     e(  7 -  7) =     28.99292  eV     1   --> A_1  G_1 D_1   
     e(  8 -  8) =     29.48027  eV     1   -->   ?

 **************************************************************************

 **************************************************************************

                    xk=(   0.00000,   0.64000,   0.00000  )

     Band symmetry, C_4v (4mm)  point group:

     e(  1 -  1) =      7.52992  eV     1   --> A_1  G_1 D_1   
     e(  2 -  2) =      9.00227  eV     1   --> B_2  G_4 D_2'  
     e(  3 -  3) =     10.94150  eV     1   --> A_1  G_1 D_1   
     e(  4 -  5) =     11.25681  eV     2   --> E    G_5 D_5   
     e(  6 -  6) =     11.49607  eV     1   --> B_1  G_3 D_2   
     e(  7 -  7) =     28.41430  eV     1   --> A_1  G_1 D_1   
     e(  8 -  8) =     29.23226  eV     1   -->   ?

 **************************************************************************

 **************************************************************************

                    xk=(   0.00000,   0.66000,   0.00000  )

     Band symmetry, C_4v (4mm)  point group:

     e(  1 -  1) =      7.64612  eV     1   --> A_1  G_1 D_1   
     e(  2 -  2) =      8.96013  eV     1   --> B_2  G_4 D_2'  
     e(  3 -  3) =     11.08626  eV     1   --> A_1  G_1 D_1   
     e(  4 -  5) =     11.31097  eV     2   --> E    G_5 D_5   
     e(  6 -  6) =     11.51370  eV     1   --> B_1  G_3 D_2   
     e(  7 -  7) =     27.84021  eV     1   --> A_1  G_1 D_1   
     e(  8 -  8) =     28.99474  eV     1   -->   ?

 **************************************************************************

 **************************************************************************

                    xk=(   0.00000,   0.68000,   0.00000  )

     Band symmetry, C_4v (4mm)  point group:

     e(  1 -  1) =      7.74494  eV     1   --> A_1  G_1 D_1   
     e(  2 -  2) =      8.91956  eV     1   --> B_2  G_4 D_2'  
     e(  3 -  3) =     11.25622  eV     1   --> A_1  G_1 D_1   
     e(  4 -  5) =     11.36423  eV     2   --> E    G_5 D_5   
     e(  6 -  6) =     11.53075  eV     1   --> B_1  G_3 D_2   
     e(  7 -  7) =     27.27217  eV     1   --> A_1  G_1 D_1   
     e(  8 -  8) =     28.76809  eV     1   -->   ?

 **************************************************************************

 **************************************************************************

                    xk=(   0.00000,   0.70000,   0.00000  )

     Band symmetry, C_4v (4mm)  point group:

     e(  1 -  1) =      7.82684  eV     1   --> A_1  G_1 D_1   
     e(  2 -  2) =      8.88073  eV     1   --> B_2  G_4 D_2'  
     e(  3 -  4) =     11.41631  eV     2   --> E    G_5 D_5   
     e(  5 -  5) =     11.45046  eV     1   --> A_1  G_1 D_1   
     e(  6 -  6) =     11.54717  eV     1   --> B_1  G_3 D_2   
     e(  7 -  7) =     26.71162  eV     1   --> A_1  G_1 D_1   
     e(  8 -  8) =     28.55266  eV     1   -->   ?

 **************************************************************************

 **************************************************************************

                    xk=(   0.00000,   0.72000,   0.00000  )

     Band symmetry, C_4v (4mm)  point group:

     e(  1 -  1) =      7.89301  eV     1   --> A_1  G_1 D_1   
     e(  2 -  2) =      8.84375  eV     1   --> B_2  G_4 D_2'  
     e(  3 -  4) =     11.46693  eV     2   --> E    G_5 D_5   
     e(  5 -  5) =     11.56287  eV     1   --> B_1  G_3 D_2   
     e(  6 -  6) =     11.66718  eV     1   --> A_1  G_1 D_1   
     e(  7 -  7) =     26.15996  eV     1   --> A_1  G_1 D_1   
     e(  8 -  8) =     28.34885  eV     1   -->   ?

 **************************************************************************

 **************************************************************************

                    xk=(   0.00000,   0.74000,   0.00000  )

     Band symmetry, C_4v (4mm)  point group:

     e(  1 -  1) =      7.94515  eV     1   --> A_1  G_1 D_1   
     e(  2 -  2) =      8.80876  eV     1   --> B_2  G_4 D_2'  
     e(  3 -  4) =     11.51578  eV     2   --> E    G_5 D_5   
     e(  5 -  5) =     11.57780  eV     1   --> B_1  G_3 D_2   
     e(  6 -  6) =     11.90390  eV     1   --> A_1  G_1 D_1   
     e(  7 -  7) =     25.61867  eV     1   --> A_1  G_1 D_1   
     e(  8 -  8) =     28.15701  eV     1   -->   ?

 **************************************************************************

 **************************************************************************

                    xk=(   0.00000,   0.76000,   0.00000  )

     Band symmetry, C_4v (4mm)  point group:

     e(  1 -  1) =      7.98522  eV     1   --> A_1  G_1 D_1   
     e(  2 -  2) =      8.77587  eV     1   --> B_2  G_4 D_2'  
     e(  3 -  4) =     11.56258  eV     2   --> E    G_5 D_5   
     e(  5 -  5) =     11.59189  eV     1   --> B_1  G_3 D_2   
     e(  6 -  6) =     12.15763  eV     1   --> A_1  G_1 D_1   
     e(  7 -  7) =     25.08933  eV     1   --> A_1  G_1 D_1   
     e(  8 -  8) =     27.97753  eV     1   -->   ?

 **************************************************************************

 **************************************************************************

                    xk=(   0.00000,   0.78000,   0.00000  )

     Band symmetry, C_4v (4mm)  point group:

     e(  1 -  1) =      8.01522  eV     1   --> A_1  G_1 D_1   
     e(  2 -  2) =      8.74520  eV     1   --> B_2  G_4 D_2'  
     e(  3 -  3) =     11.60508  eV     1   --> B_1  G_3 D_2   
     e(  4 -  5) =     11.60702  eV     2   --> E    G_5 D_5   
     e(  6 -  6) =     12.42505  eV     1   --> A_1  G_1 D_1   
     e(  7 -  7) =     24.57375  eV     1   --> A_1  G_1 D_1   
     e(  8 -  8) =     27.81076  eV     1   -->   ?

 **************************************************************************

 **************************************************************************

                    xk=(   0.00000,   0.80000,   0.00000  )

     Band symmetry, C_4v (4mm)  point group:

     e(  1 -  1) =      8.03703  eV     1   --> A_1  G_1 D_1   
     e(  2 -  2) =      8.71685  eV     1   --> B_2  G_4 D_2'  
     e(  3 -  3) =     11.61732  eV     1   --> B_1  G_3 D_2   
     e(  4 -  5) =     11.64880  eV     2   --> E    G_5 D_5   
     e(  6 -  6) =     12.70254  eV     1   --> A_1  G_1 D_1   
     e(  7 -  7) =     24.07408  eV     1   --> A_1  G_1 D_1   
     e(  8 -  8) =     27.65708  eV     1   -->   ?

 **************************************************************************

 **************************************************************************

                    xk=(   0.00000,   0.82000,   0.00000  )

     Band symmetry, C_4v (4mm)  point group:

     e(  1 -  1) =      8.05235  eV     1   --> A_1  G_1 D_1   
     e(  2 -  2) =      8.69092  eV     1   --> B_2  G_4 D_2'  
     e(  3 -  3) =     11.62856  eV     1   --> B_1  G_3 D_2   
     e(  4 -  5) =     11.68764  eV     2   --> E    G_5 D_5   
     e(  6 -  6) =     12.98618  eV     1   --> A_1  G_1 D_1   
     e(  7 -  7) =     23.59290  eV     1   --> A_1  G_1 D_1   
     e(  8 -  8) =     27.51682  eV     1   -->   ?

 **************************************************************************

 **************************************************************************

                    xk=(   0.00000,   0.84000,   0.00000  )

     Band symmetry, C_4v (4mm)  point group:

     e(  1 -  1) =      8.06266  eV     1   --> A_1  G_1 D_1   
     e(  2 -  2) =      8.66748  eV     1   --> B_2  G_4 D_2'  
     e(  3 -  3) =     11.63875  eV     1   --> B_1  G_3 D_2   
     e(  4 -  5) =     11.72325  eV     2   --> E    G_5 D_5   
     e(  6 -  6) =     13.27156  eV     1   --> A_1  G_1 D_1   
     e(  7 -  7) =     23.13344  eV     1   --> A_1  G_1 D_1   
     e(  8 -  8) =     27.39032  eV     1   -->   ?

 **************************************************************************

 **************************************************************************

                    xk=(   0.00000,   0.86000,   0.00000  )

     Band symmetry, C_4v (4mm)  point group:

     e(  1 -  1) =      8.06921  eV     1   --> A_1  G_1 D_1   
     e(  2 -  2) =      8.64662  eV     1   --> B_2  G_4 D_2'  
     e(  3 -  3) =     11.64784  eV     1   --> B_1  G_3 D_2   
     e(  4 -  5) =     11.75538  eV     2   --> E    G_5 D_5   
     e(  6 -  6) =     13.55364  eV     1   --> A_1  G_1 D_1   
     e(  7 -  7) =     22.69975  eV     1   --> A_1  G_1 D_1   
     e(  8 -  8) =     27.27789  eV     1   -->   ?

 **************************************************************************

 **************************************************************************

                    xk=(   0.00000,   0.88000,   0.00000  )

     Band symmetry, C_4v (4mm)  point group:

     e(  1 -  1) =      8.07304  eV     1   --> A_1  G_1 D_1   
     e(  2 -  2) =      8.62841  eV     1   --> B_2  G_4 D_2'  
     e(  3 -  3) =     11.65580  eV     1   --> B_1  G_3 D_2   
     e(  4 -  5) =     11.78377  eV     2   --> E    G_5 D_5   
     e(  6 -  6) =     13.82645  eV     1   --> A_1  G_1 D_1   
     e(  7 -  7) =     22.29697  eV     1   --> A_1  G_1 D_1   
     e(  8 -  8) =     27.17981  eV     1   -->   ?

 **************************************************************************

 **************************************************************************

                    xk=(   0.00000,   0.90000,   0.00000  )

     Band symmetry, C_4v (4mm)  point group:

     e(  1 -  1) =      8.07498  eV     1   --> A_1  G_1 D_1   
     e(  2 -  2) =      8.61290  eV     1   --> B_2  G_4 D_2'  
     e(  3 -  3) =     11.66259  eV     1   --> B_1  G_3 D_2   
     e(  4 -  5) =     11.80819  eV     2   --> E    G_5 D_5   
     e(  6 -  6) =     14.08287  eV     1   --> A_1  G_1 D_1   
     e(  7 -  7) =     21.93159  eV     1   --> A_1  G_1 D_1   
     e(  8 -  8) =     27.09636  eV     1   -->   ?

 **************************************************************************

 **************************************************************************

                    xk=(   0.00000,   0.92000,   0.00000  )

     Band symmetry, C_4v (4mm)  point group:

     e(  1 -  1) =      8.07572  eV     1   --> A_1  G_1 D_1   
     e(  2 -  2) =      8.60014  eV     1   --> B_2  G_4 D_2'  
     e(  3 -  3) =     11.66819  eV     1   --> B_1  G_3 D_2   
     e(  4 -  5) =     11.82847  eV     2   --> E    G_5 D_5   
     e(  6 -  6) =     14.31436  eV     1   --> A_1  G_1 D_1   
     e(  7 -  7) =     21.61159  eV     1   --> A_1  G_1 D_1   
     e(  8 -  8) =     27.02775  eV     1   -->   ?

 **************************************************************************

 **************************************************************************

                    xk=(   0.00000,   0.94000,   0.00000  )

     Band symmetry, C_4v (4mm)  point group:

     e(  1 -  1) =      8.07579  eV     1   --> A_1  G_1 D_1   
     e(  2 -  2) =      8.59017  eV     1   --> B_2  G_4 D_2'  
     e(  3 -  3) =     11.67257  eV     1   --> B_1  G_3 D_2   
     e(  4 -  5) =     11.84442  eV     2   --> E    G_5 D_5   
     e(  6 -  6) =     14.51106  eV     1   --> A_1  G_1 D_1   
     e(  7 -  7) =     21.34646  eV     1   --> A_1  G_1 D_1   
     e(  8 -  8) =     26.97418  eV     1   -->   ?

 **************************************************************************

 **************************************************************************

                    xk=(   0.00000,   0.96000,   0.00000  )

     Band symmetry, C_4v (4mm)  point group:

     e(  1 -  1) =      8.07556  eV     1   --> A_1  G_1 D_1   
     e(  2 -  2) =      8.58303  eV     1   --> B_2  G_4 D_2'  
     e(  3 -  3) =     11.67571  eV     1   --> B_1  G_3 D_2   
     e(  4 -  5) =     11.85591  eV     2   --> E    G_5 D_5   
     e(  6 -  6) =     14.66232  eV     1   --> A_1  G_1 D_1   
     e(  7 -  7) =     21.14651  eV     1   --> A_1  G_1 D_1   
     e(  8 -  8) =     26.93581  eV     1   -->   ?

 **************************************************************************

 **************************************************************************

                    xk=(   0.00000,   0.98000,   0.00000  )

     Band symmetry, C_4v (4mm)  point group:

     e(  1 -  1) =      8.07532  eV     1   --> A_1  G_1 D_1   
     e(  2 -  2) =      8.57873  eV     1   --> B_2  G_4 D_2'  
     e(  3 -  3) =     11.67760  eV     1   --> B_1  G_3 D_2   
     e(  4 -  5) =     11.86284  eV     2   --> E    G_5 D_5   
     e(  6 -  6) =     14.75809  eV     1   --> A_1  G_1 D_1   
     e(  7 -  7) =     21.02161  eV     1   --> A_1  G_1 D_1   
     e(  8 -  8) =     26.91274  eV     1   -->   ?

 **************************************************************************

 **************************************************************************

                    xk=(   0.00000,   1.00000,   0.00000  )

     point group D_4h(4/mmm)
     there are 10 classes
     the character table:

       E     2C4   C2    2C2'  2C2'' i     2S4   s_h   2s_v  2s_d 
A_1g   1.00  1.00  1.00  1.00  1.00  1.00  1.00  1.00  1.00  1.00
A_2g   1.00  1.00  1.00 -1.00 -1.00  1.00  1.00  1.00 -1.00 -1.00
B_1g   1.00 -1.00  1.00  1.00 -1.00  1.00 -1.00  1.00  1.00 -1.00
B_2g   1.00 -1.00  1.00 -1.00  1.00  1.00 -1.00  1.00 -1.00  1.00
E_g    2.00  0.00 -2.00  0.00  0.00  2.00  0.00 -2.00  0.00  0.00
A_1u   1.00  1.00  1.00  1.00  1.00 -1.00 -1.00 -1.00 -1.00 -1.00
A_2u   1.00  1.00  1.00 -1.00 -1.00 -1.00 -1.00 -1.00  1.00  1.00
B_1u   1.00 -1.00  1.00  1.00 -1.00 -1.00  1.00 -1.00 -1.00  1.00
B_2u   1.00 -1.00  1.00 -1.00  1.00 -1.00  1.00 -1.00  1.00 -1.00
E_u    2.00  0.00 -2.00  0.00  0.00 -2.00  0.00  2.00  0.00  0.00

     the symmetry operations in each class and the name of the first element:

     E        1
                                                                 
     2C4      7    8
                                                                 
     C2       3
                                                                 
     2C2'     2    4
                                                                 
     2C2''    5    6
                                                                 
     i        9
                                                                 
     2S4     15   16
                                                                 
     s_h     11
                                                                 
     2s_v    10   12
                                                                 
     2s_d    13   14
                                                                 

     Band symmetry, D_4h(4/mmm) point group:

     e(  1 -  1) =      8.07522  eV     1   --> A_1g X_1  M_1  
     e(  2 -  2) =      8.57730  eV     1   --> B_2g X_3  M_3  
     e(  3 -  3) =     11.67823  eV     1   --> B_1g X_2  M_2  
     e(  4 -  5) =     11.86515  eV     2   --> E_g  X_5  M_5  
     e(  6 -  6) =     14.79094  eV     1   --> A_2u X_4' M_4' 
     e(  7 -  7) =     20.97906  eV     1   --> A_1g X_1  M_1  
     e(  8 -  8) =     26.90504  eV     1   -->   ?

 **************************************************************************

 **************************************************************************

                    xk=(   0.01000,   1.00000,   0.00000  )

     point group C_2v (mm2) 
     there are  4 classes
     the character table:

       E     C2    s_v   s_v' 
A_1    1.00  1.00  1.00  1.00
A_2    1.00  1.00 -1.00 -1.00
B_1    1.00 -1.00  1.00 -1.00
B_2    1.00 -1.00 -1.00  1.00

     the symmetry operations in each class and the name of the first element:

     E        1
                                                                 
     C2       2
                                                                 
     s_v      4
                                                                 
     s_v'     3
                                                                 

     Band symmetry, C_2v (mm2)  point group:

     e(  1 -  1) =      8.07585  eV     1   --> A_1  D_1  S_1  
     e(  2 -  2) =      8.57768  eV     1   --> B_1  D_3  S_3  
     e(  3 -  3) =     11.67774  eV     1   --> A_1  D_1  S_1  
     e(  4 -  4) =     11.86237  eV     1   --> B_2  D_4  S_4  
     e(  5 -  5) =     11.86515  eV     1   --> A_2  D_2  S_2  
     e(  6 -  6) =     14.79484  eV     1   --> B_2  D_4  S_4  
     e(  7 -  7) =     20.97948  eV     1   --> A_1  D_1  S_1  
     e(  8 -  8) =     26.89601  eV     1   -->   ?

 **************************************************************************

 **************************************************************************

                    xk=(   0.02000,   1.00000,   0.00000  )

     Band symmetry, C_2v (mm2)  point group:

     e(  1 -  1) =      8.07772  eV     1   --> A_1  D_1  S_1  
     e(  2 -  2) =      8.57881  eV     1   --> B_1  D_3  S_3  
     e(  3 -  3) =     11.67628  eV     1   --> A_1  D_1  S_1  
     e(  4 -  4) =     11.85409  eV     1   --> B_2  D_4  S_4  
     e(  5 -  5) =     11.86515  eV     1   --> A_2  D_2  S_2  
     e(  6 -  6) =     14.80649  eV     1   --> B_2  D_4  S_4  
     e(  7 -  7) =     20.98071  eV     1   --> A_1  D_1  S_1  
     e(  8 -  8) =     26.86884  eV     1   --> B_1  D_3  S_3  

 **************************************************************************

 **************************************************************************

                    xk=(   0.03000,   1.00000,   0.00000  )

     Band symmetry, C_2v (mm2)  point group:

     e(  1 -  1) =      8.08084  eV     1   --> A_1  D_1  S_1  
     e(  2 -  2) =      8.58071  eV     1   --> B_1  D_3  S_3  
     e(  3 -  3) =     11.67384  eV     1   --> A_1  D_1  S_1  
     e(  4 -  4) =     11.84043  eV     1   --> B_2  D_4  S_4  
     e(  5 -  5) =     11.86516  eV     1   --> A_2  D_2  S_2  
     e(  6 -  6) =     14.82576  eV     1   --> B_2  D_4  S_4  
     e(  7 -  7) =     20.98278  eV     1   --> A_1  D_1  S_1  
     e(  8 -  8) =     26.82444  eV     1   --> B_1  D_3  S_3  

 **************************************************************************

 **************************************************************************

                    xk=(   0.04000,   1.00000,   0.00000  )

     Band symmetry, C_2v (mm2)  point group:

     e(  1 -  1) =      8.08520  eV     1   --> A_1  D_1  S_1  
     e(  2 -  2) =      8.58336  eV     1   --> B_1  D_3  S_3  
     e(  3 -  3) =     11.67043  eV     1   --> A_1  D_1  S_1  
     e(  4 -  4) =     11.82161  eV     1   --> B_2  D_4  S_4  
     e(  5 -  5) =     11.86516  eV     1   --> A_2  D_2  S_2  
     e(  6 -  6) =     14.85244  eV     1   --> B_2  D_4  S_4  
     e(  7 -  7) =     20.98568  eV     1   --> A_1  D_1  S_1  
     e(  8 -  8) =     26.76378  eV     1   --> B_1  D_3  S_3  

 **************************************************************************

 **************************************************************************

                    xk=(   0.05000,   1.00000,   0.00000  )

     Band symmetry, C_2v (mm2)  point group:

     e(  1 -  1) =      8.09078  eV     1   --> A_1  D_1  S_1  
     e(  2 -  2) =      8.58677  eV     1   --> B_1  D_3  S_3  
     e(  3 -  3) =     11.66606  eV     1   --> A_1  D_1  S_1  
     e(  4 -  4) =     11.79790  eV     1   --> B_2  D_4  S_4  
     e(  5 -  5) =     11.86518  eV     1   --> A_2  D_2  S_2  
     e(  6 -  6) =     14.88624  eV     1   --> B_2  D_4  S_4  
     e(  7 -  7) =     20.98941  eV     1   --> A_1  D_1  S_1  
     e(  8 -  8) =     26.68817  eV     1   --> B_1  D_3  S_3  

 **************************************************************************

 **************************************************************************

                    xk=(   0.06000,   1.00000,   0.00000  )

     Band symmetry, C_2v (mm2)  point group:

     e(  1 -  1) =      8.09759  eV     1   --> A_1  D_1  S_1  
     e(  2 -  2) =      8.59093  eV     1   --> B_1  D_3  S_3  
     e(  3 -  3) =     11.66072  eV     1   --> A_1  D_1  S_1  
     e(  4 -  4) =     11.76964  eV     1   --> B_2  D_4  S_4  
     e(  5 -  5) =     11.86519  eV     1   --> A_2  D_2  S_2  
     e(  6 -  6) =     14.92684  eV     1   --> B_2  D_4  S_4  
     e(  7 -  7) =     20.99398  eV     1   --> A_1  D_1  S_1  
     e(  8 -  8) =     26.59908  eV     1   --> B_1  D_3  S_3  

 **************************************************************************

 **************************************************************************

                    xk=(   0.07000,   1.00000,   0.00000  )

     Band symmetry, C_2v (mm2)  point group:

     e(  1 -  1) =      8.10561  eV     1   --> A_1  D_1  S_1  
     e(  2 -  2) =      8.59586  eV     1   --> B_1  D_3  S_3  
     e(  3 -  3) =     11.65443  eV     1   --> A_1  D_1  S_1  
     e(  4 -  4) =     11.73718  eV     1   --> B_2  D_4  S_4  
     e(  5 -  5) =     11.86520  eV     1   --> A_2  D_2  S_2  
     e(  6 -  6) =     14.97388  eV     1   --> B_2  D_4  S_4  
     e(  7 -  7) =     20.99940  eV     1   --> A_1  D_1  S_1  
     e(  8 -  8) =     26.49801  eV     1   --> B_1  D_3  S_3  

 **************************************************************************

 **************************************************************************

                    xk=(   0.08000,   1.00000,   0.00000  )

     Band symmetry, C_2v (mm2)  point group:

     e(  1 -  1) =      8.11481  eV     1   --> A_1  D_1  S_1  
     e(  2 -  2) =      8.60155  eV     1   --> B_1  D_3  S_3  
     e(  3 -  3) =     11.64719  eV     1   --> A_1  D_1  S_1  
     e(  4 -  4) =     11.70091  eV     1   --> B_2  D_4  S_4  
     e(  5 -  5) =     11.86521  eV     1   --> A_2  D_2  S_2  
     e(  6 -  6) =     15.02696  eV     1   --> B_2  D_4  S_4  
     e(  7 -  7) =     21.00567  eV     1   --> A_1  D_1  S_1  
     e(  8 -  8) =     26.38644  eV     1   --> B_1  D_3  S_3  

 **************************************************************************

 **************************************************************************

                    xk=(   0.09000,   1.00000,   0.00000  )

     Band symmetry, C_2v (mm2)  point group:

     e(  1 -  1) =      8.12519  eV     1   --> A_1  D_1  S_1  
     e(  2 -  2) =      8.60800  eV     1   --> B_1  D_3  S_3  
     e(  3 -  3) =     11.63902  eV     1   --> A_1  D_1  S_1  
     e(  4 -  4) =     11.66122  eV     1   --> B_2  D_4  S_4  
     e(  5 -  5) =     11.86523  eV     1   --> A_2  D_2  S_2  
     e(  6 -  6) =     15.08571  eV     1   --> B_2  D_4  S_4  
     e(  7 -  7) =     21.01281  eV     1   --> A_1  D_1  S_1  
     e(  8 -  8) =     26.26578  eV     1   --> B_1  D_3  S_3  

 **************************************************************************

 **************************************************************************

                    xk=(   0.10000,   1.00000,   0.00000  )

     Band symmetry, C_2v (mm2)  point group:

     e(  1 -  1) =      8.13672  eV     1   --> A_1  D_1  S_1  
     e(  2 -  2) =      8.61522  eV     1   --> B_1  D_3  S_3  
     e(  3 -  3) =     11.61848  eV     1   --> B_2  D_4  S_4  
     e(  4 -  4) =     11.62992  eV     1   --> A_1  D_1  S_1  
     e(  5 -  5) =     11.86524  eV     1   --> A_2  D_2  S_2  
     e(  6 -  6) =     15.14973  eV     1   --> B_2  D_4  S_4  
     e(  7 -  7) =     21.02082  eV     1   --> A_1  D_1  S_1  
     e(  8 -  8) =     26.13730  eV     1   --> B_1  D_3  S_3  

 **************************************************************************

 **************************************************************************

                    xk=(   0.11000,   1.00000,   0.00000  )

     Band symmetry, C_2v (mm2)  point group:

     e(  1 -  1) =      8.14938  eV     1   --> A_1  D_1  S_1  
     e(  2 -  2) =      8.62321  eV     1   --> B_1  D_3  S_3  
     e(  3 -  3) =     11.57306  eV     1   --> B_2  D_4  S_4  
     e(  4 -  4) =     11.61992  eV     1   --> A_1  D_1  S_1  
     e(  5 -  5) =     11.86526  eV     1   --> A_2  D_2  S_2  
     e(  6 -  6) =     15.21866  eV     1   --> B_2  D_4  S_4  
     e(  7 -  7) =     21.02972  eV     1   --> A_1  D_1  S_1  
     e(  8 -  8) =     26.00215  eV     1   --> B_1  D_3  S_3  

 **************************************************************************

 **************************************************************************

                    xk=(   0.12000,   1.00000,   0.00000  )

     Band symmetry, C_2v (mm2)  point group:

     e(  1 -  1) =      8.16314  eV     1   --> A_1  D_1  S_1  
     e(  2 -  2) =      8.63196  eV     1   --> B_1  D_3  S_3  
     e(  3 -  3) =     11.52532  eV     1   --> B_2  D_4  S_4  
     e(  4 -  4) =     11.60901  eV     1   --> A_1  D_1  S_1  
     e(  5 -  5) =     11.86528  eV     1   --> A_2  D_2  S_2  
     e(  6 -  6) =     15.29215  eV     1   --> B_2  D_4  S_4  
     e(  7 -  7) =     21.03953  eV     1   --> A_1  D_1  S_1  
     e(  8 -  8) =     25.86133  eV     1   --> B_1  D_3  S_3  

 **************************************************************************

 **************************************************************************

                    xk=(   0.13000,   1.00000,   0.00000  )

     Band symmetry, C_2v (mm2)  point group:

     e(  1 -  1) =      8.17797  eV     1   --> A_1  D_1  S_1  
     e(  2 -  2) =      8.64148  eV     1   --> B_1  D_3  S_3  
     e(  3 -  3) =     11.47557  eV     1   --> B_2  D_4  S_4  
     e(  4 -  4) =     11.59723  eV     1   --> A_1  D_1  S_1  
     e(  5 -  5) =     11.86530  eV     1   --> A_2  D_2  S_2  
     e(  6 -  6) =     15.36988  eV     1   --> B_2  D_4  S_4  
     e(  7 -  7) =     21.05025  eV     1   --> A_1  D_1  S_1  
     e(  8 -  8) =     25.71574  eV     1   --> B_1  D_3  S_3  

 **************************************************************************

 **************************************************************************

                    xk=(   0.14000,   1.00000,   0.00000  )

     Band symmetry, C_2v (mm2)  point group:

     e(  1 -  1) =      8.19385  eV     1   --> A_1  D_1  S_1  
     e(  2 -  2) =      8.65177  eV     1   --> B_1  D_3  S_3  
     e(  3 -  3) =     11.42410  eV     1   --> B_2  D_4  S_4  
     e(  4 -  4) =     11.58458  eV     1   --> A_1  D_1  S_1  
     e(  5 -  5) =     11.86532  eV     1   --> A_2  D_2  S_2  
     e(  6 -  6) =     15.45154  eV     1   --> B_2  D_4  S_4  
     e(  7 -  7) =     21.06189  eV     1   --> A_1  D_1  S_1  
     e(  8 -  8) =     25.56614  eV     1   --> B_1  D_3  S_3  

 **************************************************************************

 **************************************************************************

                    xk=(   0.15000,   1.00000,   0.00000  )

     Band symmetry, C_2v (mm2)  point group:

     e(  1 -  1) =      8.21073  eV     1   --> A_1  D_1  S_1  
     e(  2 -  2) =      8.66284  eV     1   --> B_1  D_3  S_3  
     e(  3 -  3) =     11.37120  eV     1   --> B_2  D_4  S_4  
     e(  4 -  4) =     11.57110  eV     1   --> A_1  D_1  S_1  
     e(  5 -  5) =     11.86534  eV     1   --> A_2  D_2  S_2  
     e(  6 -  6) =     15.53685  eV     1   --> B_2  D_4  S_4  
     e(  7 -  7) =     21.07448  eV     1   --> A_1  D_1  S_1  
     e(  8 -  8) =     25.41318  eV     1   --> B_1  D_3  S_3  

 **************************************************************************

 **************************************************************************

                    xk=(   0.16000,   1.00000,   0.00000  )

     Band symmetry, C_2v (mm2)  point group:

     e(  1 -  1) =      8.22858  eV     1   --> A_1  D_1  S_1  
     e(  2 -  2) =      8.67468  eV     1   --> B_1  D_3  S_3  
     e(  3 -  3) =     11.31710  eV     1   --> B_2  D_4  S_4  
     e(  4 -  4) =     11.55680  eV     1   --> A_1  D_1  S_1  
     e(  5 -  5) =     11.86536  eV     1   --> A_2  D_2  S_2  
     e(  6 -  6) =     15.62558  eV     1   --> B_2  D_4  S_4  
     e(  7 -  7) =     21.08804  eV     1   --> A_1  D_1  S_1  
     e(  8 -  8) =     25.25746  eV     1   --> B_1  D_3  S_3  

 **************************************************************************

 **************************************************************************

                    xk=(   0.17000,   1.00000,   0.00000  )

     Band symmetry, C_2v (mm2)  point group:

     e(  1 -  1) =      8.24735  eV     1   --> A_1  D_1  S_1  
     e(  2 -  2) =      8.68730  eV     1   --> B_1  D_3  S_3  
     e(  3 -  3) =     11.26203  eV     1   --> B_2  D_4  S_4  
     e(  4 -  4) =     11.54171  eV     1   --> A_1  D_1  S_1  
     e(  5 -  5) =     11.86539  eV     1   --> A_2  D_2  S_2  
     e(  6 -  6) =     15.71749  eV     1   --> B_2  D_4  S_4  
     e(  7 -  7) =     21.10258  eV     1   --> A_1  D_1  S_1  
     e(  8 -  8) =     25.09944  eV     1   --> B_1  D_3  S_3  

 **************************************************************************

 **************************************************************************

                    xk=(   0.18000,   1.00000,   0.00000  )

     Band symmetry, C_2v (mm2)  point group:

     e(  1 -  1) =      8.26701  eV     1   --> A_1  D_1  S_1  
     e(  2 -  2) =      8.70071  eV     1   --> B_1  D_3  S_3  
     e(  3 -  3) =     11.20620  eV     1   --> B_2  D_4  S_4  
     e(  4 -  4) =     11.52586  eV     1   --> A_1  D_1  S_1  
     e(  5 -  5) =     11.86541  eV     1   --> A_2  D_2  S_2  
     e(  6 -  6) =     15.81238  eV     1   --> B_2  D_4  S_4  
     e(  7 -  7) =     21.11813  eV     1   --> A_1  D_1  S_1  
     e(  8 -  8) =     24.93955  eV     1   --> B_1  D_3  S_3  

 **************************************************************************

 **************************************************************************

                    xk=(   0.19000,   1.00000,   0.00000  )

     Band symmetry, C_2v (mm2)  point group:

     e(  1 -  1) =      8.28750  eV     1   --> A_1  D_1  S_1  
     e(  2 -  2) =      8.71490  eV     1   --> B_1  D_3  S_3  
     e(  3 -  3) =     11.14976  eV     1   --> B_2  D_4  S_4  
     e(  4 -  4) =     11.50928  eV     1   --> A_1  D_1  S_1  
     e(  5 -  5) =     11.86544  eV     1   --> A_2  D_2  S_2  
     e(  6 -  6) =     15.91007  eV     1   --> B_2  D_4  S_4  
     e(  7 -  7) =     21.13469  eV     1   --> A_1  D_1  S_1  
     e(  8 -  8) =     24.77816  eV     1   --> B_1  D_3  S_3  

 **************************************************************************

 **************************************************************************

                    xk=(   0.20000,   1.00000,   0.00000  )

     Band symmetry, C_2v (mm2)  point group:

     e(  1 -  1) =      8.30878  eV     1   --> A_1  D_1  S_1  
     e(  2 -  2) =      8.72988  eV     1   --> B_1  D_3  S_3  
     e(  3 -  3) =     11.09290  eV     1   --> B_2  D_4  S_4  
     e(  4 -  4) =     11.49201  eV     1   --> A_1  D_1  S_1  
     e(  5 -  5) =     11.86547  eV     1   --> A_2  D_2  S_2  
     e(  6 -  6) =     16.01038  eV     1   --> B_2  D_4  S_4  
     e(  7 -  7) =     21.15230  eV     1   --> A_1  D_1  S_1  
     e(  8 -  8) =     24.61558  eV     1   --> B_1  D_3  S_3  

 **************************************************************************

 **************************************************************************

                    xk=(   0.21000,   1.00000,   0.00000  )

     Band symmetry, C_2v (mm2)  point group:

     e(  1 -  1) =      8.33079  eV     1   --> A_1  D_1  S_1  
     e(  2 -  2) =      8.74564  eV     1   --> B_1  D_3  S_3  
     e(  3 -  3) =     11.03575  eV     1   --> B_2  D_4  S_4  
     e(  4 -  4) =     11.47408  eV     1   --> A_1  D_1  S_1  
     e(  5 -  5) =     11.86549  eV     1   --> A_2  D_2  S_2  
     e(  6 -  6) =     16.11319  eV     1   --> B_2  D_4  S_4  
     e(  7 -  7) =     21.17097  eV     1   --> A_1  D_1  S_1  
     e(  8 -  8) =     24.45207  eV     1   --> B_1  D_3  S_3  

 **************************************************************************

 **************************************************************************

                    xk=(   0.22000,   1.00000,   0.00000  )

     Band symmetry, C_2v (mm2)  point group:

     e(  1 -  1) =      8.35346  eV     1   --> A_1  D_1  S_1  
     e(  2 -  2) =      8.76221  eV     1   --> B_1  D_3  S_3  
     e(  3 -  3) =     10.97843  eV     1   --> B_2  D_4  S_4  
     e(  4 -  4) =     11.45554  eV     1   --> A_1  D_1  S_1  
     e(  5 -  5) =     11.86552  eV     1   --> A_2  D_2  S_2  
     e(  6 -  6) =     16.21834  eV     1   --> B_2  D_4  S_4  
     e(  7 -  7) =     21.19073  eV     1   --> A_1  D_1  S_1  
     e(  8 -  8) =     24.28788  eV     1   --> B_1  D_3  S_3  

 **************************************************************************

 **************************************************************************

                    xk=(   0.23000,   1.00000,   0.00000  )

     Band symmetry, C_2v (mm2)  point group:

     e(  1 -  1) =      8.37674  eV     1   --> A_1  D_1  S_1  
     e(  2 -  2) =      8.77956  eV     1   --> B_1  D_3  S_3  
     e(  3 -  3) =     10.92106  eV     1   --> B_2  D_4  S_4  
     e(  4 -  4) =     11.43644  eV     1   --> A_1  D_1  S_1  
     e(  5 -  5) =     11.86555  eV     1   --> A_2  D_2  S_2  
     e(  6 -  6) =     16.32573  eV     1   --> B_2  D_4  S_4  
     e(  7 -  7) =     21.21160  eV     1   --> A_1  D_1  S_1  
     e(  8 -  8) =     24.12320  eV     1   --> B_1  D_3  S_3  

 **************************************************************************

 **************************************************************************

                    xk=(   0.24000,   1.00000,   0.00000  )

     Band symmetry, C_2v (mm2)  point group:

     e(  1 -  1) =      8.40057  eV     1   --> A_1  D_1  S_1  
     e(  2 -  2) =      8.79772  eV     1   --> B_1  D_3  S_3  
     e(  3 -  3) =     10.86375  eV     1   --> B_2  D_4  S_4  
     e(  4 -  4) =     11.41682  eV     1   --> A_1  D_1  S_1  
     e(  5 -  5) =     11.86557  eV     1   --> A_2  D_2  S_2  
     e(  6 -  6) =     16.43524  eV     1   --> B_2  D_4  S_4  
     e(  7 -  7) =     21.23360  eV     1   --> A_1  D_1  S_1  
     e(  8 -  8) =     23.95821  eV     1   --> B_1  D_3  S_3  

 **************************************************************************

 **************************************************************************

                    xk=(   0.25000,   1.00000,   0.00000  )

     Band symmetry, C_2v (mm2)  point group:

     e(  1 -  1) =      8.42485  eV     1   --> A_1  D_1  S_1  
     e(  2 -  2) =      8.81668  eV     1   --> B_1  D_3  S_3  
     e(  3 -  3) =     10.80658  eV     1   --> B_2  D_4  S_4  
     e(  4 -  4) =     11.39674  eV     1   --> A_1  D_1  S_1  
     e(  5 -  5) =     11.86560  eV     1   --> A_2  D_2  S_2  
     e(  6 -  6) =     16.54679  eV     1   --> B_2  D_4  S_4  
     e(  7 -  7) =     21.25675  eV     1   --> A_1  D_1  S_1  
     e(  8 -  8) =     23.79306  eV     1   --> B_1  D_3  S_3  

 **************************************************************************

 **************************************************************************

                    xk=(   0.26000,   1.00000,   0.00000  )

     Band symmetry, C_2v (mm2)  point group:

     e(  1 -  1) =      8.44953  eV     1   --> A_1  D_1  S_1  
     e(  2 -  2) =      8.83645  eV     1   --> B_1  D_3  S_3  
     e(  3 -  3) =     10.74962  eV     1   --> B_2  D_4  S_4  
     e(  4 -  4) =     11.37626  eV     1   --> A_1  D_1  S_1  
     e(  5 -  5) =     11.86563  eV     1   --> A_2  D_2  S_2  
     e(  6 -  6) =     16.66028  eV     1   --> B_2  D_4  S_4  
     e(  7 -  7) =     21.28109  eV     1   --> A_1  D_1  S_1  
     e(  8 -  8) =     23.62788  eV     1   --> B_1  D_3  S_3  

 **************************************************************************

 **************************************************************************

                    xk=(   0.27000,   1.00000,   0.00000  )

     Band symmetry, C_2v (mm2)  point group:

     e(  1 -  1) =      8.47452  eV     1   --> A_1  D_1  S_1  
     e(  2 -  2) =      8.85703  eV     1   --> B_1  D_3  S_3  
     e(  3 -  3) =     10.69297  eV     1   --> B_2  D_4  S_4  
     e(  4 -  4) =     11.35544  eV     1   --> A_1  D_1  S_1  
     e(  5 -  5) =     11.86566  eV     1   --> A_2  D_2  S_2  
     e(  6 -  6) =     16.77563  eV     1   --> B_2  D_4  S_4  
     e(  7 -  7) =     21.30662  eV     1   --> A_1  D_1  S_1  
     e(  8 -  8) =     23.46281  eV     1   --> B_1  D_3  S_3  

 **************************************************************************

 **************************************************************************

                    xk=(   0.28000,   1.00000,   0.00000  )

     Band symmetry, C_2v (mm2)  point group:

     e(  1 -  1) =      8.49974  eV     1   --> A_1  D_1  S_1  
     e(  2 -  2) =      8.87842  eV     1   --> B_1  D_3  S_3  
     e(  3 -  3) =     10.63667  eV     1   --> B_2  D_4  S_4  
     e(  4 -  4) =     11.33435  eV     1   --> A_1  D_1  S_1  
     e(  5 -  5) =     11.86569  eV     1   --> A_2  D_2  S_2  
     e(  6 -  6) =     16.89278  eV     1   --> B_2  D_4  S_4  
     e(  7 -  7) =     21.33338  eV     1   --> A_1  D_1  S_1  
     e(  8 -  8) =     23.29793  eV     1   --> B_1  D_3  S_3  

 **************************************************************************

 **************************************************************************

                    xk=(   0.29000,   1.00000,   0.00000  )

     Band symmetry, C_2v (mm2)  point group:

     e(  1 -  1) =      8.52509  eV     1   --> A_1  D_1  S_1  
     e(  2 -  2) =      8.90062  eV     1   --> B_1  D_3  S_3  
     e(  3 -  3) =     10.58079  eV     1   --> B_2  D_4  S_4  
     e(  4 -  4) =     11.31307  eV     1   --> A_1  D_1  S_1  
     e(  5 -  5) =     11.86571  eV     1   --> A_2  D_2  S_2  
     e(  6 -  6) =     17.01166  eV     1   --> B_2  D_4  S_4  
     e(  7 -  7) =     21.36138  eV     1   --> A_1  D_1  S_1  
     e(  8 -  8) =     23.13334  eV     1   --> B_1  D_3  S_3  

 **************************************************************************

 **************************************************************************

                    xk=(   0.30000,   1.00000,   0.00000  )

     Band symmetry, C_2v (mm2)  point group:

     e(  1 -  1) =      8.55047  eV     1   --> A_1  D_1  S_1  
     e(  2 -  2) =      8.92365  eV     1   --> B_1  D_3  S_3  
     e(  3 -  3) =     10.52537  eV     1   --> B_2  D_4  S_4  
     e(  4 -  4) =     11.29168  eV     1   --> A_1  D_1  S_1  
     e(  5 -  5) =     11.86574  eV     1   --> A_2  D_2  S_2  
     e(  6 -  6) =     17.13222  eV     1   --> B_2  D_4  S_4  
     e(  7 -  7) =     21.39064  eV     1   --> A_1  D_1  S_1  
     e(  8 -  8) =     22.96913  eV     1   --> B_1  D_3  S_3  

 **************************************************************************

 **************************************************************************

                    xk=(   0.31000,   1.00000,   0.00000  )

     Band symmetry, C_2v (mm2)  point group:

     e(  1 -  1) =      8.57579  eV     1   --> A_1  D_1  S_1  
     e(  2 -  2) =      8.94750  eV     1   --> B_1  D_3  S_3  
     e(  3 -  3) =     10.47047  eV     1   --> B_2  D_4  S_4  
     e(  4 -  4) =     11.27026  eV     1   --> A_1  D_1  S_1  
     e(  5 -  5) =     11.86577  eV     1   --> A_2  D_2  S_2  
     e(  6 -  6) =     17.25440  eV     1   --> B_2  D_4  S_4  
     e(  7 -  7) =     21.42117  eV     1   --> A_1  D_1  S_1  
     e(  8 -  8) =     22.80536  eV     1   --> B_1  D_3  S_3  

 **************************************************************************

 **************************************************************************

                    xk=(   0.32000,   1.00000,   0.00000  )

     Band symmetry, C_2v (mm2)  point group:

     e(  1 -  1) =      8.60094  eV     1   --> A_1  D_1  S_1  
     e(  2 -  2) =      8.97217  eV     1   --> B_1  D_3  S_3  
     e(  3 -  3) =     10.41612  eV     1   --> B_2  D_4  S_4  
     e(  4 -  4) =     11.24891  eV     1   --> A_1  D_1  S_1  
     e(  5 -  5) =     11.86579  eV     1   --> A_2  D_2  S_2  
     e(  6 -  6) =     17.37814  eV     1   --> B_2  D_4  S_4  
     e(  7 -  7) =     21.45300  eV     1   --> A_1  D_1  S_1  
     e(  8 -  8) =     22.64210  eV     1   --> B_1  D_3  S_3  

 **************************************************************************

 **************************************************************************

                    xk=(   0.33000,   1.00000,   0.00000  )

     Band symmetry, C_2v (mm2)  point group:

     e(  1 -  1) =      8.62580  eV     1   --> A_1  D_1  S_1  
     e(  2 -  2) =      8.99767  eV     1   --> B_1  D_3  S_3  
     e(  3 -  3) =     10.36237  eV     1   --> B_2  D_4  S_4  
     e(  4 -  4) =     11.22773  eV     1   --> A_1  D_1  S_1  
     e(  5 -  5) =     11.86582  eV     1   --> A_2  D_2  S_2  
     e(  6 -  6) =     17.50341  eV     1   --> B_2  D_4  S_4  
     e(  7 -  7) =     21.48612  eV     1   --> A_1  D_1  S_1  
     e(  8 -  8) =     22.47940  eV     1   --> B_1  D_3  S_3  

 **************************************************************************

 **************************************************************************

                    xk=(   0.34000,   1.00000,   0.00000  )

     Band symmetry, C_2v (mm2)  point group:

     e(  1 -  1) =      8.65027  eV     1   --> A_1  D_1  S_1  
     e(  2 -  2) =      9.02401  eV     1   --> B_1  D_3  S_3  
     e(  3 -  3) =     10.30923  eV     1   --> B_2  D_4  S_4  
     e(  4 -  4) =     11.20681  eV     1   --> A_1  D_1  S_1  
     e(  5 -  5) =     11.86584  eV     1   --> A_2  D_2  S_2  
     e(  6 -  6) =     17.63018  eV     1   --> B_2  D_4  S_4  
     e(  7 -  7) =     21.52054  eV     1   --> A_1  D_1  S_1  
     e(  8 -  8) =     22.31732  eV     1   --> B_1  D_3  S_3  

 **************************************************************************

 **************************************************************************

                    xk=(   0.35000,   1.00000,   0.00000  )

     Band symmetry, C_2v (mm2)  point group:

     e(  1 -  1) =      8.67421  eV     1   --> A_1  D_1  S_1  
     e(  2 -  2) =      9.05117  eV     1   --> B_1  D_3  S_3  
     e(  3 -  3) =     10.25675  eV     1   --> B_2  D_4  S_4  
     e(  4 -  4) =     11.18627  eV     1   --> A_1  D_1  S_1  
     e(  5 -  5) =     11.86586  eV     1   --> A_2  D_2  S_2  
     e(  6 -  6) =     17.75839  eV     1   --> B_2  D_4  S_4  
     e(  7 -  7) =     21.55626  eV     1   --> A_1  D_1  S_1  
     e(  8 -  8) =     22.15591  eV     1   --> B_1  D_3  S_3  

 **************************************************************************

 **************************************************************************

                    xk=(   0.36000,   1.00000,   0.00000  )

     Band symmetry, C_2v (mm2)  point group:

     e(  1 -  1) =      8.69749  eV     1   --> A_1  D_1  S_1  
     e(  2 -  2) =      9.07918  eV     1   --> B_1  D_3  S_3  
     e(  3 -  3) =     10.20494  eV     1   --> B_2  D_4  S_4  
     e(  4 -  4) =     11.16622  eV     1   --> A_1  D_1  S_1  
     e(  5 -  5) =     11.86589  eV     1   --> A_2  D_2  S_2  
     e(  6 -  6) =     17.88801  eV     1   --> B_2  D_4  S_4  
     e(  7 -  7) =     21.59324  eV     1   --> A_1  D_1  S_1  
     e(  8 -  8) =     21.99520  eV     1   --> B_1  D_3  S_3  

 **************************************************************************

 **************************************************************************

                    xk=(   0.37000,   1.00000,   0.00000  )

     Band symmetry, C_2v (mm2)  point group:

     e(  1 -  1) =      8.72000  eV     1   --> A_1  D_1  S_1  
     e(  2 -  2) =      9.10803  eV     1   --> B_1  D_3  S_3  
     e(  3 -  3) =     10.15384  eV     1   --> B_2  D_4  S_4  
     e(  4 -  4) =     11.14678  eV     1   --> A_1  D_1  S_1  
     e(  5 -  5) =     11.86591  eV     1   --> A_2  D_2  S_2  
     e(  6 -  6) =     18.01902  eV     1   --> B_2  D_4  S_4  
     e(  7 -  7) =     21.63147  eV     1   --> A_1  D_1  S_1  
     e(  8 -  8) =     21.83524  eV     1   --> B_1  D_3  S_3  

 **************************************************************************

 **************************************************************************

                    xk=(   0.38000,   1.00000,   0.00000  )

     Band symmetry, C_2v (mm2)  point group:

     e(  1 -  1) =      8.74159  eV     1   --> A_1  D_1  S_1  
     e(  2 -  2) =      9.13772  eV     1   --> B_1  D_3  S_3  
     e(  3 -  3) =     10.10346  eV     1   --> B_2  D_4  S_4  
     e(  4 -  4) =     11.12808  eV     1   --> A_1  D_1  S_1  
     e(  5 -  5) =     11.86593  eV     1   --> A_2  D_2  S_2  
     e(  6 -  6) =     18.15137  eV     1   --> B_2  D_4  S_4  
     e(  7 -  7) =     21.67089  eV     1   --> A_1  D_1  S_1  
     e(  8 -  8) =     21.67606  eV     1   --> B_1  D_3  S_3  

 **************************************************************************

 **************************************************************************

                    xk=(   0.39000,   1.00000,   0.00000  )

     Band symmetry, C_2v (mm2)  point group:

     e(  1 -  1) =      8.76213  eV     1   --> A_1  D_1  S_1  
     e(  2 -  2) =      9.16825  eV     1   --> B_1  D_3  S_3  
     e(  3 -  3) =     10.05382  eV     1   --> B_2  D_4  S_4  
     e(  4 -  4) =     11.11024  eV     1   --> A_1  D_1  S_1  
     e(  5 -  5) =     11.86595  eV     1   --> A_2  D_2  S_2  
     e(  6 -  6) =     18.28506  eV     1   --> B_2  D_4  S_4  
     e(  7 -  7) =     21.51768  eV     1   --> B_1  D_3  S_3  
     e(  8 -  8) =     21.71141  eV     1   --> A_1  D_1  S_1  

 **************************************************************************

 **************************************************************************

                    xk=(   0.40000,   1.00000,   0.00000  )

     Band symmetry, C_2v (mm2)  point group:

     e(  1 -  1) =      8.78148  eV     1   --> A_1  D_1  S_1  
     e(  2 -  2) =      9.19963  eV     1   --> B_1  D_3  S_3  
     e(  3 -  3) =     10.00493  eV     1   --> B_2  D_4  S_4  
     e(  4 -  4) =     11.09338  eV     1   --> A_1  D_1  S_1  
     e(  5 -  5) =     11.86596  eV     1   --> A_2  D_2  S_2  
     e(  6 -  6) =     18.42004  eV     1   --> B_2  D_4  S_4  
     e(  7 -  7) =     21.36015  eV     1   --> B_1  D_3  S_3  
     e(  8 -  8) =     21.75292  eV     1   --> A_1  D_1  S_1  

 **************************************************************************

 **************************************************************************

                    xk=(   0.41000,   1.00000,   0.00000  )

     Band symmetry, C_2v (mm2)  point group:

     e(  1 -  1) =      8.79950  eV     1   --> A_1  D_1  S_1  
     e(  2 -  2) =      9.23186  eV     1   --> B_1  D_3  S_3  
     e(  3 -  3) =      9.95682  eV     1   --> B_2  D_4  S_4  
     e(  4 -  4) =     11.07765  eV     1   --> A_1  D_1  S_1  
     e(  5 -  5) =     11.86598  eV     1   --> A_2  D_2  S_2  
     e(  6 -  6) =     18.55629  eV     1   --> B_2  D_4  S_4  
     e(  7 -  7) =     21.20349  eV     1   --> B_1  D_3  S_3  
     e(  8 -  8) =     21.79523  eV     1   --> A_1  D_1  S_1  

 **************************************************************************

 **************************************************************************

                    xk=(   0.42000,   1.00000,   0.00000  )

     Band symmetry, C_2v (mm2)  point group:

     e(  1 -  1) =      8.81606  eV     1   --> A_1  D_1  S_1  
     e(  2 -  2) =      9.26494  eV     1   --> B_1  D_3  S_3  
     e(  3 -  3) =      9.90950  eV     1   --> B_2  D_4  S_4  
     e(  4 -  4) =     11.06315  eV     1   --> A_1  D_1  S_1  
     e(  5 -  5) =     11.86599  eV     1   --> A_2  D_2  S_2  
     e(  6 -  6) =     18.69380  eV     1   --> B_2  D_4  S_4  
     e(  7 -  7) =     21.04772  eV     1   --> B_1  D_3  S_3  
     e(  8 -  8) =     21.83809  eV     1   --> A_1  D_1  S_1  

 **************************************************************************

 **************************************************************************

                    xk=(   0.43000,   1.00000,   0.00000  )

     Band symmetry, C_2v (mm2)  point group:

     e(  1 -  1) =      8.83103  eV     1   --> A_1  D_1  S_1  
     e(  2 -  2) =      9.29887  eV     1   --> B_1  D_3  S_3  
     e(  3 -  3) =      9.86297  eV     1   --> B_2  D_4  S_4  
     e(  4 -  4) =     11.05002  eV     1   --> A_1  D_1  S_1  
     e(  5 -  5) =     11.86601  eV     1   --> A_2  D_2  S_2  
     e(  6 -  6) =     18.83253  eV     1   --> B_2  D_4  S_4  
     e(  7 -  7) =     20.89287  eV     1   --> B_1  D_3  S_3  
     e(  8 -  8) =     21.88111  eV     1   --> A_1  D_1  S_1  

 **************************************************************************

 **************************************************************************

                    xk=(   0.44000,   1.00000,   0.00000  )

     Band symmetry, C_2v (mm2)  point group:

     e(  1 -  1) =      8.84428  eV     1   --> A_1  D_1  S_1  
     e(  2 -  2) =      9.33365  eV     1   --> B_1  D_3  S_3  
     e(  3 -  3) =      9.81724  eV     1   --> B_2  D_4  S_4  
     e(  4 -  4) =     11.03837  eV     1   --> A_1  D_1  S_1  
     e(  5 -  5) =     11.86602  eV     1   --> A_2  D_2  S_2  
     e(  6 -  6) =     18.97247  eV     1   --> B_2  D_4  S_4  
     e(  7 -  7) =     20.73895  eV     1   --> B_1  D_3  S_3  
     e(  8 -  8) =     21.92372  eV     1   --> A_1  D_1  S_1  

 **************************************************************************

 **************************************************************************

                    xk=(   0.45000,   1.00000,   0.00000  )

     Band symmetry, C_2v (mm2)  point group:

     e(  1 -  1) =      8.85571  eV     1   --> A_1  D_1  S_1  
     e(  2 -  2) =      9.36929  eV     1   --> B_1  D_3  S_3  
     e(  3 -  3) =      9.77234  eV     1   --> B_2  D_4  S_4  
     e(  4 -  4) =     11.02831  eV     1   --> A_1  D_1  S_1  
     e(  5 -  5) =     11.86603  eV     1   --> A_2  D_2  S_2  
     e(  6 -  6) =     19.11360  eV     1   --> B_2  D_4  S_4  
     e(  7 -  7) =     20.58600  eV     1   --> B_1  D_3  S_3  
     e(  8 -  8) =     21.96510  eV     1   --> A_1  D_1  S_1  

 **************************************************************************

 **************************************************************************

                    xk=(   0.46000,   1.00000,   0.00000  )

     Band symmetry, C_2v (mm2)  point group:

     e(  1 -  1) =      8.86521  eV     1   --> A_1  D_1  S_1  
     e(  2 -  2) =      9.40578  eV     1   --> B_1  D_3  S_3  
     e(  3 -  3) =      9.72825  eV     1   --> B_2  D_4  S_4  
     e(  4 -  4) =     11.01993  eV     1   --> A_1  D_1  S_1  
     e(  5 -  5) =     11.86604  eV     1   --> A_2  D_2  S_2  
     e(  6 -  6) =     19.25589  eV     1   --> B_2  D_4  S_4  
     e(  7 -  7) =     20.43404  eV     1   --> B_1  D_3  S_3  
     e(  8 -  8) =     22.00401  eV     1   --> A_1  D_1  S_1  

 **************************************************************************

 **************************************************************************

                    xk=(   0.47000,   1.00000,   0.00000  )

     Band symmetry, C_2v (mm2)  point group:

     e(  1 -  1) =      8.87270  eV     1   --> A_1  D_1  S_1  
     e(  2 -  2) =      9.44312  eV     1   --> B_1  D_3  S_3  
     e(  3 -  3) =      9.68499  eV     1   --> B_2  D_4  S_4  
     e(  4 -  4) =     11.01333  eV     1   --> A_1  D_1  S_1  
     e(  5 -  5) =     11.86604  eV     1   --> A_2  D_2  S_2  
     e(  6 -  6) =     19.39933  eV     1   --> B_2  D_4  S_4  
     e(  7 -  7) =     20.28307  eV     1   --> B_1  D_3  S_3  
     e(  8 -  8) =     22.03869  eV     1   --> A_1  D_1  S_1  

 **************************************************************************

 **************************************************************************

                    xk=(   0.48000,   1.00000,   0.00000  )

     Band symmetry, C_2v (mm2)  point group:

     e(  1 -  1) =      8.87810  eV     1   --> A_1  D_1  S_1  
     e(  2 -  2) =      9.48131  eV     1   --> B_1  D_3  S_3  
     e(  3 -  3) =      9.64257  eV     1   --> B_2  D_4  S_4  
     e(  4 -  4) =     11.00856  eV     1   --> A_1  D_1  S_1  
     e(  5 -  5) =     11.86605  eV     1   --> A_2  D_2  S_2  
     e(  6 -  6) =     19.54390  eV     1   --> B_2  D_4  S_4  
     e(  7 -  7) =     20.13312  eV     1   --> B_1  D_3  S_3  
     e(  8 -  8) =     22.06673  eV     1   --> A_1  D_1  S_1  

 **************************************************************************

 **************************************************************************

                    xk=(   0.49000,   1.00000,   0.00000  )

     Band symmetry, C_2v (mm2)  point group:

     e(  1 -  1) =      8.88136  eV     1   --> A_1  D_1  S_1  
     e(  2 -  2) =      9.52036  eV     1   --> B_1  D_3  S_3  
     e(  3 -  3) =      9.60099  eV     1   --> B_2  D_4  S_4  
     e(  4 -  4) =     11.00568  eV     1   --> A_1  D_1  S_1  
     e(  5 -  5) =     11.86605  eV     1   --> A_2  D_2  S_2  
     e(  6 -  6) =     19.68959  eV     1   --> B_2  D_4  S_4  
     e(  7 -  7) =     19.98421  eV     1   --> B_1  D_3  S_3  
     e(  8 -  8) =     22.08530  eV     1   --> A_1  D_1  S_1  

 **************************************************************************

 **************************************************************************

                    xk=(   0.50000,   1.00000,   0.00000  )

     point group D_2d (-42m)
     there are  5 classes
     the character table:

       E     2S4   C2    2C2'  2s_d 
A_1    1.00  1.00  1.00  1.00  1.00
A_2    1.00  1.00  1.00 -1.00 -1.00
B_1    1.00 -1.00  1.00  1.00 -1.00
B_2    1.00 -1.00  1.00 -1.00  1.00
E      2.00  0.00 -2.00  0.00  0.00

     the symmetry operations in each class and the name of the first element:

     E        1
[...]
     e(  5 -  5) =     10.71499  eV     1   --> A_2  D_2  S_2  
     e(  6 -  6) =     11.84336  eV     1   --> A_1  D_1  S_1  
     e(  7 -  7) =     26.98155  eV     1   --> B_2  D_4  S_4  
     e(  8 -  8) =     27.78097  eV     1   --> A_1  D_1  S_1  

 **************************************************************************

 **************************************************************************

                    xk=(   0.39000,   0.39000,   0.00000  )

     Band symmetry, C_2v (mm2)  point group:

     e(  1 -  1) =      6.89950  eV     1   --> A_1  D_1  S_1  
     e(  2 -  2) =      9.58319  eV     1   --> B_2  D_4  S_4  
     e(  3 -  3) =     10.13152  eV     1   --> A_1  D_1  S_1  
     e(  4 -  4) =     10.67585  eV     1   --> B_1  D_3  S_3  
     e(  5 -  5) =     10.75505  eV     1   --> A_2  D_2  S_2  
     e(  6 -  6) =     11.95036  eV     1   --> A_1  D_1  S_1  
     e(  7 -  7) =     26.54618  eV     1   --> B_2  D_4  S_4  
     e(  8 -  8) =     27.37656  eV     1   --> A_1  D_1  S_1  

 **************************************************************************

 **************************************************************************

                    xk=(   0.40500,   0.40500,   0.00000  )

     Band symmetry, C_2v (mm2)  point group:

     e(  1 -  1) =      7.11470  eV     1   --> A_1  D_1  S_1  
     e(  2 -  2) =      9.56989  eV     1   --> B_2  D_4  S_4  
     e(  3 -  3) =     10.09265  eV     1   --> A_1  D_1  S_1  
     e(  4 -  4) =     10.66921  eV     1   --> B_1  D_3  S_3  
     e(  5 -  5) =     10.79559  eV     1   --> A_2  D_2  S_2  
     e(  6 -  6) =     12.06711  eV     1   --> A_1  D_1  S_1  
     e(  7 -  7) =     26.11649  eV     1   --> B_2  D_4  S_4  
     e(  8 -  8) =     26.98467  eV     1   --> A_1  D_1  S_1  

 **************************************************************************

 **************************************************************************

                    xk=(   0.42000,   0.42000,   0.00000  )

     Band symmetry, C_2v (mm2)  point group:

     e(  1 -  1) =      7.32657  eV     1   --> A_1  D_1  S_1  
     e(  2 -  2) =      9.55965  eV     1   --> B_2  D_4  S_4  
     e(  3 -  3) =     10.05107  eV     1   --> A_1  D_1  S_1  
     e(  4 -  4) =     10.66492  eV     1   --> B_1  D_3  S_3  
     e(  5 -  5) =     10.83650  eV     1   --> A_2  D_2  S_2  
     e(  6 -  6) =     12.19479  eV     1   --> A_1  D_1  S_1  
     e(  7 -  7) =     25.69253  eV     1   --> B_2  D_4  S_4  
     e(  8 -  8) =     26.60559  eV     1   --> A_1  D_1  S_1  

 **************************************************************************

 **************************************************************************

                    xk=(   0.43500,   0.43500,   0.00000  )

     Band symmetry, C_2v (mm2)  point group:

     e(  1 -  1) =      7.53316  eV     1   --> A_1  D_1  S_1  
     e(  2 -  2) =      9.55268  eV     1   --> B_2  D_4  S_4  
     e(  3 -  3) =     10.00696  eV     1   --> A_1  D_1  S_1  
     e(  4 -  4) =     10.66308  eV     1   --> B_1  D_3  S_3  
     e(  5 -  5) =     10.87769  eV     1   --> A_2  D_2  S_2  
     e(  6 -  6) =     12.33475  eV     1   --> A_1  D_1  S_1  
     e(  7 -  7) =     25.27433  eV     1   --> B_2  D_4  S_4  
     e(  8 -  8) =     26.23961  eV     1   --> A_1  D_1  S_1  

 **************************************************************************

 **************************************************************************

                    xk=(   0.45000,   0.45000,   0.00000  )

     Band symmetry, C_2v (mm2)  point group:

     e(  1 -  1) =      7.73237  eV     1   --> A_1  D_1  S_1  
     e(  2 -  2) =      9.54919  eV     1   --> B_2  D_4  S_4  
     e(  3 -  3) =      9.96050  eV     1   --> A_1  D_1  S_1  
     e(  4 -  4) =     10.66381  eV     1   --> B_1  D_3  S_3  
     e(  5 -  5) =     10.91904  eV     1   --> A_2  D_2  S_2  
     e(  6 -  6) =     12.48848  eV     1   --> A_1  D_1  S_1  
     e(  7 -  7) =     24.86193  eV     1   --> B_2  D_4  S_4  
     e(  8 -  8) =     25.88699  eV     1   --> A_1  D_1  S_1  

 **************************************************************************

 **************************************************************************

                    xk=(   0.46500,   0.46500,   0.00000  )

     Band symmetry, C_2v (mm2)  point group:

     e(  1 -  1) =      7.92209  eV     1   --> A_1  D_1  S_1  
     e(  2 -  2) =      9.54937  eV     1   --> B_2  D_4  S_4  
     e(  3 -  3) =      9.91187  eV     1   --> A_1  D_1  S_1  
     e(  4 -  4) =     10.66718  eV     1   --> B_1  D_3  S_3  
     e(  5 -  5) =     10.96046  eV     1   --> A_2  D_2  S_2  
     e(  6 -  6) =     12.65756  eV     1   --> A_1  D_1  S_1  
     e(  7 -  7) =     24.45535  eV     1   --> B_2  D_4  S_4  
     e(  8 -  8) =     25.54796  eV     1   --> A_1  D_1  S_1  

 **************************************************************************

 **************************************************************************

                    xk=(   0.48000,   0.48000,   0.00000  )

     Band symmetry, C_2v (mm2)  point group:

     e(  1 -  1) =      8.10028  eV     1   --> A_1  D_1  S_1  
     e(  2 -  2) =      9.55342  eV     1   --> B_2  D_4  S_4  
     e(  3 -  3) =      9.86124  eV     1   --> A_1  D_1  S_1  
     e(  4 -  4) =     10.67326  eV     1   --> B_1  D_3  S_3  
     e(  5 -  5) =     11.00185  eV     1   --> A_2  D_2  S_2  
     e(  6 -  6) =     12.84356  eV     1   --> A_1  D_1  S_1  
     e(  7 -  7) =     24.05460  eV     1   --> B_2  D_4  S_4  
     e(  8 -  8) =     25.22274  eV     1   --> A_1  D_1  S_1  

 **************************************************************************

 **************************************************************************

                    xk=(   0.49500,   0.49500,   0.00000  )

     Band symmetry, C_2v (mm2)  point group:

     e(  1 -  1) =      8.26506  eV     1   --> A_1  D_1  S_1  
     e(  2 -  2) =      9.56150  eV     1   --> B_2  D_4  S_4  
     e(  3 -  3) =      9.80878  eV     1   --> A_1  D_1  S_1  
     e(  4 -  4) =     10.68210  eV     1   --> B_1  D_3  S_3  
     e(  5 -  5) =     11.04311  eV     1   --> A_2  D_2  S_2  
     e(  6 -  6) =     13.04791  eV     1   --> A_1  D_1  S_1  
     e(  7 -  7) =     23.65971  eV     1   --> B_2  D_4  S_4  
     e(  8 -  8) =     24.91148  eV     1   --> A_1  D_1  S_1  

 **************************************************************************

 **************************************************************************

                    xk=(   0.51000,   0.51000,   0.00000  )

     Band symmetry, C_2v (mm2)  point group:

     e(  1 -  1) =      8.41484  eV     1   --> A_1  D_1  S_1  
     e(  2 -  2) =      9.57377  eV     1   --> B_2  D_4  S_4  
     e(  3 -  3) =      9.75467  eV     1   --> A_1  D_1  S_1  
     e(  4 -  4) =     10.69372  eV     1   --> B_1  D_3  S_3  
     e(  5 -  5) =     11.08414  eV     1   --> A_2  D_2  S_2  
     e(  6 -  6) =     13.27185  eV     1   --> A_1  D_1  S_1  
     e(  7 -  7) =     23.27069  eV     1   --> B_2  D_4  S_4  
     e(  8 -  8) =     24.61433  eV     1   --> A_1  D_1  S_1  

 **************************************************************************

 **************************************************************************

                    xk=(   0.52500,   0.52500,   0.00000  )

     Band symmetry, C_2v (mm2)  point group:

     e(  1 -  1) =      8.54839  eV     1   --> A_1  D_1  S_1  
     e(  2 -  2) =      9.59038  eV     1   --> B_2  D_4  S_4  
     e(  3 -  3) =      9.69911  eV     1   --> A_1  D_1  S_1  
     e(  4 -  4) =     10.70815  eV     1   --> B_1  D_3  S_3  
     e(  5 -  5) =     11.12485  eV     1   --> A_2  D_2  S_2  
     e(  6 -  6) =     13.51626  eV     1   --> A_1  D_1  S_1  
     e(  7 -  7) =     22.88756  eV     1   --> B_2  D_4  S_4  
     e(  8 -  8) =     24.33136  eV     1   --> A_1  D_1  S_1  

 **************************************************************************

 **************************************************************************

                    xk=(   0.54000,   0.54000,   0.00000  )

     Band symmetry, C_2v (mm2)  point group:

     e(  1 -  1) =      8.66495  eV     1   --> A_1  D_1  S_1  
     e(  2 -  2) =      9.61145  eV     1   --> B_2  D_4  S_4  
     e(  3 -  3) =      9.64229  eV     1   --> A_1  D_1  S_1  
     e(  4 -  4) =     10.72536  eV     1   --> B_1  D_3  S_3  
     e(  5 -  5) =     11.16515  eV     1   --> A_2  D_2  S_2  
     e(  6 -  6) =     13.78168  eV     1   --> A_1  D_1  S_1  
     e(  7 -  7) =     22.51034  eV     1   --> B_2  D_4  S_4  
     e(  8 -  8) =     24.06262  eV     1   --> A_1  D_1  S_1  

 **************************************************************************

 **************************************************************************

                    xk=(   0.55500,   0.55500,   0.00000  )

     Band symmetry, C_2v (mm2)  point group:

     e(  1 -  1) =      8.76416  eV     1   --> A_1  D_1  S_1  
     e(  2 -  2) =      9.58445  eV     1   --> A_1  D_1  S_1  
     e(  3 -  3) =      9.63710  eV     1   --> B_2  D_4  S_4  
     e(  4 -  4) =     10.74533  eV     1   --> B_1  D_3  S_3  
     e(  5 -  5) =     11.20495  eV     1   --> A_2  D_2  S_2  
     e(  6 -  6) =     14.06823  eV     1   --> A_1  D_1  S_1  
     e(  7 -  7) =     22.13904  eV     1   --> B_2  D_4  S_4  
     e(  8 -  8) =     23.80808  eV     1   --> A_1  D_1  S_1  

 **************************************************************************

 **************************************************************************

                    xk=(   0.57000,   0.57000,   0.00000  )

     Band symmetry, C_2v (mm2)  point group:

     e(  1 -  1) =      8.84609  eV     1   --> A_1  D_1  S_1  
     e(  2 -  2) =      9.52586  eV     1   --> A_1  D_1  S_1  
     e(  3 -  3) =      9.66744  eV     1   --> B_2  D_4  S_4  
     e(  4 -  4) =     10.76801  eV     1   --> B_1  D_3  S_3  
     e(  5 -  5) =     11.24415  eV     1   --> A_2  D_2  S_2  
     e(  6 -  6) =     14.37566  eV     1   --> A_1  D_1  S_1  
     e(  7 -  7) =     21.77370  eV     1   --> B_2  D_4  S_4  
     e(  8 -  8) =     23.56767  eV     1   --> A_1  D_1  S_1  

 **************************************************************************

 **************************************************************************

                    xk=(   0.58500,   0.58500,   0.00000  )

     Band symmetry, C_2v (mm2)  point group:

     e(  1 -  1) =      8.91113  eV     1   --> A_1  D_1  S_1  
     e(  2 -  2) =      9.46684  eV     1   --> A_1  D_1  S_1  
     e(  3 -  3) =      9.70255  eV     1   --> B_2  D_4  S_4  
     e(  4 -  4) =     10.79332  eV     1   --> B_1  D_3  S_3  
     e(  5 -  5) =     11.28269  eV     1   --> A_2  D_2  S_2  
     e(  6 -  6) =     14.70343  eV     1   --> A_1  D_1  S_1  
     e(  7 -  7) =     21.41434  eV     1   --> B_2  D_4  S_4  
     e(  8 -  8) =     23.34126  eV     1   --> A_1  D_1  S_1  

 **************************************************************************

 **************************************************************************

                    xk=(   0.60000,   0.60000,   0.00000  )

     Band symmetry, C_2v (mm2)  point group:

     e(  1 -  1) =      8.95987  eV     1   --> A_1  D_1  S_1  
     e(  2 -  2) =      9.40785  eV     1   --> A_1  D_1  S_1  
     e(  3 -  3) =      9.74250  eV     1   --> B_2  D_4  S_4  
     e(  4 -  4) =     10.82118  eV     1   --> B_1  D_3  S_3  
     e(  5 -  5) =     11.32048  eV     1   --> A_2  D_2  S_2  
     e(  6 -  6) =     15.05078  eV     1   --> A_1  D_1  S_1  
     e(  7 -  7) =     21.06099  eV     1   --> B_2  D_4  S_4  
     e(  8 -  8) =     23.12866  eV     1   --> A_1  D_1  S_1  

 **************************************************************************

 **************************************************************************

                    xk=(   0.61500,   0.61500,   0.00000  )

     Band symmetry, C_2v (mm2)  point group:

     e(  1 -  1) =      8.99290  eV     1   --> A_1  D_1  S_1  
     e(  2 -  2) =      9.34951  eV     1   --> A_1  D_1  S_1  
     e(  3 -  3) =      9.78736  eV     1   --> B_2  D_4  S_4  
     e(  4 -  4) =     10.85146  eV     1   --> B_1  D_3  S_3  
     e(  5 -  5) =     11.35744  eV     1   --> A_2  D_2  S_2  
     e(  6 -  6) =     15.41674  eV     1   --> A_1  D_1  S_1  
     e(  7 -  7) =     20.71369  eV     1   --> B_2  D_4  S_4  
     e(  8 -  8) =     22.92963  eV     1   --> A_1  D_1  S_1  

 **************************************************************************

 **************************************************************************

                    xk=(   0.63000,   0.63000,   0.00000  )

     Band symmetry, C_2v (mm2)  point group:

     e(  1 -  1) =      9.01067  eV     1   --> A_1  D_1  S_1  
     e(  2 -  2) =      9.29280  eV     1   --> A_1  D_1  S_1  
     e(  3 -  3) =      9.83716  eV     1   --> B_2  D_4  S_4  
     e(  4 -  4) =     10.88404  eV     1   --> B_1  D_3  S_3  
     e(  5 -  5) =     11.39351  eV     1   --> A_2  D_2  S_2  
     e(  6 -  6) =     15.80028  eV     1   --> A_1  D_1  S_1  
     e(  7 -  7) =     20.37250  eV     1   --> B_2  D_4  S_4  
     e(  8 -  8) =     22.74387  eV     1   --> A_1  D_1  S_1  

 **************************************************************************

 **************************************************************************

                    xk=(   0.64500,   0.64500,   0.00000  )

     Band symmetry, C_2v (mm2)  point group:

     e(  1 -  1) =      9.01323  eV     1   --> A_1  D_1  S_1  
     e(  2 -  2) =      9.23913  eV     1   --> A_1  D_1  S_1  
     e(  3 -  3) =      9.89193  eV     1   --> B_2  D_4  S_4  
     e(  4 -  4) =     10.91874  eV     1   --> B_1  D_3  S_3  
     e(  5 -  5) =     11.42860  eV     1   --> A_2  D_2  S_2  
     e(  6 -  6) =     16.20035  eV     1   --> A_1  D_1  S_1  
     e(  7 -  7) =     20.03747  eV     1   --> B_2  D_4  S_4  
     e(  8 -  8) =     22.57105  eV     1   --> A_1  D_1  S_1  

 **************************************************************************

 **************************************************************************

                    xk=(   0.66000,   0.66000,   0.00000  )

     Band symmetry, C_2v (mm2)  point group:

     e(  1 -  1) =      9.00031  eV     1   --> A_1  D_1  S_1  
     e(  2 -  2) =      9.19028  eV     1   --> A_1  D_1  S_1  
     e(  3 -  3) =      9.95167  eV     1   --> B_2  D_4  S_4  
     e(  4 -  4) =     10.95539  eV     1   --> B_1  D_3  S_3  
     e(  5 -  5) =     11.46267  eV     1   --> A_2  D_2  S_2  
     e(  6 -  6) =     16.61588  eV     1   --> A_1  D_1  S_1  
     e(  7 -  7) =     19.70867  eV     1   --> B_2  D_4  S_4  
     e(  8 -  8) =     22.41080  eV     1   --> A_1  D_1  S_1  

 **************************************************************************

 **************************************************************************

                    xk=(   0.67500,   0.67500,   0.00000  )

     Band symmetry, C_2v (mm2)  point group:

     e(  1 -  1) =      8.97222  eV     1   --> A_1  D_1  S_1  
     e(  2 -  2) =      9.14747  eV     1   --> A_1  D_1  S_1  
     e(  3 -  3) =     10.01636  eV     1   --> B_2  D_4  S_4  
     e(  4 -  4) =     10.99379  eV     1   --> B_1  D_3  S_3  
     e(  5 -  5) =     11.49564  eV     1   --> A_2  D_2  S_2  
     e(  6 -  6) =     17.04580  eV     1   --> A_1  D_1  S_1  
     e(  7 -  7) =     19.38618  eV     1   --> B_2  D_4  S_4  
     e(  8 -  8) =     22.26275  eV     1   --> A_1  D_1  S_1  

 **************************************************************************

 **************************************************************************

                    xk=(   0.69000,   0.69000,   0.00000  )

     Band symmetry, C_2v (mm2)  point group:

     e(  1 -  1) =      8.93128  eV     1   --> A_1  D_1  S_1  
     e(  2 -  2) =      9.10989  eV     1   --> A_1  D_1  S_1  
     e(  3 -  3) =     10.08597  eV     1   --> B_2  D_4  S_4  
     e(  4 -  4) =     11.03371  eV     1   --> B_1  D_3  S_3  
     e(  5 -  5) =     11.52747  eV     1   --> A_2  D_2  S_2  
     e(  6 -  6) =     17.48907  eV     1   --> A_1  D_1  S_1  
     e(  7 -  7) =     19.07011  eV     1   --> B_2  D_4  S_4  
     e(  8 -  8) =     22.12650  eV     1   --> A_1  D_1  S_1  

 **************************************************************************

 **************************************************************************

                    xk=(   0.70500,   0.70500,   0.00000  )

     Band symmetry, C_2v (mm2)  point group:

     e(  1 -  1) =      8.88137  eV     1   --> A_1  D_1  S_1  
     e(  2 -  2) =      9.07509  eV     1   --> A_1  D_1  S_1  
     e(  3 -  3) =     10.16043  eV     1   --> B_2  D_4  S_4  
     e(  4 -  4) =     11.07491  eV     1   --> B_1  D_3  S_3  
     e(  5 -  5) =     11.55809  eV     1   --> A_2  D_2  S_2  
     e(  6 -  6) =     17.94460  eV     1   --> A_1  D_1  S_1  
     e(  7 -  7) =     18.76057  eV     1   --> B_2  D_4  S_4  
     e(  8 -  8) =     22.00172  eV     1   --> A_1  D_1  S_1  

 **************************************************************************

 **************************************************************************

                    xk=(   0.72000,   0.72000,   0.00000  )

     Band symmetry, C_2v (mm2)  point group:

     e(  1 -  1) =      8.82613  eV     1   --> A_1  D_1  S_1  
     e(  2 -  2) =      9.04085  eV     1   --> A_1  D_1  S_1  
     e(  3 -  3) =     10.23965  eV     1   --> B_2  D_4  S_4  
     e(  4 -  4) =     11.11712  eV     1   --> B_1  D_3  S_3  
     e(  5 -  5) =     11.58746  eV     1   --> A_2  D_2  S_2  
     e(  6 -  6) =     18.41125  eV     1   --> A_1  D_1  S_1  
     e(  7 -  7) =     18.45770  eV     1   --> B_2  D_4  S_4  
     e(  8 -  8) =     21.88816  eV     1   --> A_1  D_1  S_1  

 **************************************************************************

 **************************************************************************

                    xk=(   0.73500,   0.73500,   0.00000  )

     Band symmetry, C_2v (mm2)  point group:

     e(  1 -  1) =      8.76804  eV     1   --> A_1  D_1  S_1  
     e(  2 -  2) =      9.00606  eV     1   --> A_1  D_1  S_1  
     e(  3 -  3) =     10.32350  eV     1   --> B_2  D_4  S_4  
     e(  4 -  4) =     11.16006  eV     1   --> B_1  D_3  S_3  
     e(  5 -  5) =     11.61552  eV     1   --> A_2  D_2  S_2  
     e(  6 -  6) =     18.16167  eV     1   --> B_2  D_4  S_4  
     e(  7 -  7) =     18.88764  eV     1   --> A_1  D_1  S_1  
     e(  8 -  8) =     21.78579  eV     1   --> A_1  D_1  S_1  

 **************************************************************************

 **************************************************************************

                    xk=(   0.75000,   0.75000,   0.00000  )

     Band symmetry, C_2v (mm2)  point group:

     e(  1 -  1) =      8.70866  eV     1   --> A_1  D_1  S_1  
     e(  2 -  2) =      8.97043  eV     1   --> A_1  D_1  S_1  
     e(  3 -  3) =     10.41181  eV     1   --> B_2  D_4  S_4  
     e(  4 -  4) =     11.20341  eV     1   --> B_1  D_3  S_3  
     e(  5 -  5) =     11.64225  eV     1   --> A_2  D_2  S_2  
     e(  6 -  6) =     17.87269  eV     1   --> B_2  D_4  S_4  
     e(  7 -  7) =     19.37191  eV     1   --> A_1  D_1  S_1  
     e(  8 -  8) =     21.69511  eV     1   --> A_1  D_1  S_1  

 **************************************************************************

     BANDS        :     36.61s CPU      7.53s WALL


   This run was terminated on:  23:28:17  31Jul2021            

=------------------------------------------------------------------------------=
   JOB DONE.
=------------------------------------------------------------------------------=
