
     Program PWSCF v.6.4.1 starts on 31Jul2021 at 23:44:46 

     This program is part of the open-source Quantum ESPRESSO suite
     for quantum simulation of materials; please cite
         "P. Giannozzi et al., J. Phys.:Condens. Matter 21 395502 (2009);
         "P. Giannozzi et al., J. Phys.:Condens. Matter 29 465901 (2017);
          URL http://www.quantum-espresso.org", 
     in publications or presentations arising from this work. More details at
     http://www.quantum-espresso.org/quote

     Parallel version (MPI & OpenMP), running on      12 processor cores
     Number of MPI processes:                 1
     Threads/MPI process:                    12

     MPI processes distributed on     1 nodes
     Waiting for input...
     Reading input from standard input
Warning: card EOF ignored

     Current dimensions of program PWSCF are:
     Max number of different atomic species (ntypx) = 10
     Max number of k-points (npk) =  40000
     Max angular momentum in pseudopotentials (lmaxx) =  3

     Subspace diagonalization in iterative solution of the eigenvalue problem:
     a serial algorithm will be used


     G-vector sticks info
     --------------------
     sticks:   dense  smooth     PW     G-vecs:    dense   smooth      PW
     Sum         595     595    199                 9841     9841    1807



     bravais-lattice index     =            2
     lattice parameter (alat)  =      10.4749  a.u.
     unit-cell volume          =     287.3390 (a.u.)^3
     number of atoms/cell      =            2
     number of atomic types    =            2
     number of electrons       =         8.00
     number of Kohn-Sham states=            4
     kinetic-energy cutoff     =      40.0000  Ry
     charge density cutoff     =     160.0000  Ry
     convergence threshold     =      1.0E-06
     mixing beta               =       0.7000
     number of iterations used =            8  plain     mixing
     Exchange-correlation      = SLA PZ NOGX NOGC ( 1  1  0  0 0 0)

     celldm(1)=  10.474940  celldm(2)=   0.000000  celldm(3)=   0.000000
     celldm(4)=   0.000000  celldm(5)=   0.000000  celldm(6)=   0.000000

     crystal axes: (cart. coord. in units of alat)
               a(1) = (  -0.500000   0.000000   0.500000 )  
               a(2) = (   0.000000   0.500000   0.500000 )  
               a(3) = (  -0.500000   0.500000   0.000000 )  

     reciprocal axes: (cart. coord. in units 2 pi/alat)
               b(1) = ( -1.000000 -1.000000  1.000000 )  
               b(2) = (  1.000000  1.000000  1.000000 )  
               b(3) = ( -1.000000  1.000000 -1.000000 )  


     PseudoPot. # 1 for Ga read from file:
     ./\Ga.pz-bhs.UPF
     MD5 check sum: a1058a6628c7d0963bea0033900ed7d8
     Pseudo is Norm-conserving, Zval =  3.0
     Generated by new atomic code, or converted to UPF format
     Using radial grid of  523 points,  2 beta functions with: 
                l(1) =   0
                l(2) =   1

     PseudoPot. # 2 for As read from file:
     ./\As.pz-bhs.UPF
     MD5 check sum: 2c53d8691f3db84e0fbdf898b12bc293
     Pseudo is Norm-conserving, Zval =  5.0
     Generated by new atomic code, or converted to UPF format
     Using radial grid of  525 points,  2 beta functions with: 
                l(1) =   0
                l(2) =   1

     atomic species   valence    mass     pseudopotential
        Ga             3.00     1.00000     Ga( 1.00)
        As             5.00     1.00000     As( 1.00)

     24 Sym. Ops. (no inversion) found



   Cartesian axes

     site n.     atom                  positions (alat units)
         1           Ga  tau(   1) = (   0.0000000   0.0000000   0.0000000  )
         2           As  tau(   2) = (  -0.2500000   0.2500000   0.2500000  )

     number of k points=    28
                       cart. coord. in units 2pi/alat
        k(    1) = (  -0.0833333   0.0833333   0.0833333), wk =   0.0185185
        k(    2) = (  -0.2500000   0.2500000  -0.0833333), wk =   0.0555556
        k(    3) = (  -0.4166667   0.4166667  -0.2500000), wk =   0.0555556
        k(    4) = (   0.4166667  -0.4166667   0.5833333), wk =   0.0555556
        k(    5) = (   0.2500000  -0.2500000   0.4166667), wk =   0.0555556
        k(    6) = (   0.0833333  -0.0833333   0.2500000), wk =   0.0555556
        k(    7) = (  -0.0833333   0.4166667   0.0833333), wk =   0.0555556
        k(    8) = (  -0.2500000   0.5833333  -0.0833333), wk =   0.1111111
        k(    9) = (   0.5833333  -0.2500000   0.7500000), wk =   0.1111111
        k(   10) = (   0.4166667  -0.0833333   0.5833333), wk =   0.1111111
        k(   11) = (   0.2500000   0.0833333   0.4166667), wk =   0.1111111
        k(   12) = (  -0.0833333   0.7500000   0.0833333), wk =   0.0555556
        k(   13) = (   0.7500000  -0.0833333   0.9166667), wk =   0.1111111
        k(   14) = (   0.5833333   0.0833333   0.7500000), wk =   0.1111111
        k(   15) = (   0.4166667   0.2500000   0.5833333), wk =   0.1111111
        k(   16) = (  -0.0833333  -0.9166667   0.0833333), wk =   0.0555556
        k(   17) = (  -0.2500000  -0.7500000  -0.0833333), wk =   0.1111111
        k(   18) = (  -0.0833333  -0.5833333   0.0833333), wk =   0.0555556
        k(   19) = (  -0.2500000   0.2500000   0.2500000), wk =   0.0185185
        k(   20) = (  -0.4166667   0.4166667   0.0833333), wk =   0.0555556
        k(   21) = (   0.4166667  -0.4166667   0.9166667), wk =   0.0555556
        k(   22) = (   0.2500000  -0.2500000   0.7500000), wk =   0.0555556
        k(   23) = (  -0.2500000   0.5833333   0.2500000), wk =   0.0555556
        k(   24) = (   0.5833333  -0.2500000   1.0833333), wk =   0.1111111
        k(   25) = (   0.4166667  -0.0833333   0.9166667), wk =   0.1111111
        k(   26) = (  -0.2500000  -1.0833333   0.2500000), wk =   0.0555556
        k(   27) = (  -0.4166667   0.4166667   0.4166667), wk =   0.0185185
        k(   28) = (   0.4166667  -0.4166667   1.2500000), wk =   0.0555556

     Dense  grid:     9841 G-vectors     FFT dimensions: (  30,  30,  30)

     Estimated max dynamical RAM per process >       9.47 MB

     Initial potential from superposition of free atoms

     starting charge    7.99794, renormalised to    8.00000
     Starting wfcs are    8 randomized atomic wfcs

     total cpu time spent up to now is        0.4 secs

     Self-consistent Calculation

     iteration #  1     ecut=    40.00 Ry     beta= 0.70
     Davidson diagonalization with overlap
     ethr =  1.00E-02,  avg # of iterations =  1.5

     Threshold (ethr) on eigenvalues was too large:
     Diagonalizing with lowered threshold

     Davidson diagonalization with overlap
     ethr =  4.89E-04,  avg # of iterations =  3.0

     total cpu time spent up to now is        0.7 secs

     total energy              =     -17.32057234 Ry
     Harris-Foulkes estimate   =     -17.33800342 Ry
     estimated scf accuracy    <       0.04431630 Ry

     iteration #  2     ecut=    40.00 Ry     beta= 0.70
     Davidson diagonalization with overlap
     ethr =  5.54E-04,  avg # of iterations =  2.0

     total cpu time spent up to now is        0.9 secs

     total energy              =     -17.32569087 Ry
     Harris-Foulkes estimate   =     -17.32698102 Ry
     estimated scf accuracy    <       0.00307851 Ry

     iteration #  3     ecut=    40.00 Ry     beta= 0.70
     Davidson diagonalization with overlap
     ethr =  3.85E-05,  avg # of iterations =  2.2

     total cpu time spent up to now is        1.0 secs

     total energy              =     -17.32641502 Ry
     Harris-Foulkes estimate   =     -17.32643982 Ry
     estimated scf accuracy    <       0.00016560 Ry

     iteration #  4     ecut=    40.00 Ry     beta= 0.70
     Davidson diagonalization with overlap
     ethr =  2.07E-06,  avg # of iterations =  2.1

     total cpu time spent up to now is        1.1 secs

     total energy              =     -17.32643805 Ry
     Harris-Foulkes estimate   =     -17.32644104 Ry
     estimated scf accuracy    <       0.00001153 Ry

     iteration #  5     ecut=    40.00 Ry     beta= 0.70
     Davidson diagonalization with overlap
     ethr =  1.44E-07,  avg # of iterations =  2.5

     total cpu time spent up to now is        1.3 secs

     total energy              =     -17.32643539 Ry
     Harris-Foulkes estimate   =     -17.32643986 Ry
     estimated scf accuracy    <       0.00000676 Ry

     iteration #  6     ecut=    40.00 Ry     beta= 0.70
     Davidson diagonalization with overlap
     ethr =  8.44E-08,  avg # of iterations =  3.0

     total cpu time spent up to now is        1.4 secs

     total energy              =     -17.32643767 Ry
     Harris-Foulkes estimate   =     -17.32643854 Ry
     estimated scf accuracy    <       0.00000241 Ry

     iteration #  7     ecut=    40.00 Ry     beta= 0.70
     Davidson diagonalization with overlap
     ethr =  3.01E-08,  avg # of iterations =  1.0

     total cpu time spent up to now is        1.5 secs

     End of self-consistent calculation

          k =-0.0833 0.0833 0.0833 (  1243 PWs)   bands (ev):

    -7.5704   4.0962   5.0716   5.0716

          k =-0.2500 0.2500-0.0833 (  1238 PWs)   bands (ev):

    -7.1932   1.8713   3.9478   4.8671

          k =-0.4167 0.4167-0.2500 (  1227 PWs)   bands (ev):

    -6.3934  -0.6874   3.4068   4.2570

          k = 0.4167-0.4167 0.5833 (  1214 PWs)   bands (ev):

    -5.9803  -1.5773   3.4348   3.8902

          k = 0.2500-0.2500 0.4167 (  1236 PWs)   bands (ev):

    -6.6797   0.0610   3.9395   3.9813

          k = 0.0833-0.0833 0.2500 (  1242 PWs)   bands (ev):

    -7.3786   2.8675   4.5121   4.6188

          k =-0.0833 0.4167 0.0833 (  1234 PWs)   bands (ev):

    -7.0043   1.5471   3.7560   3.8063

          k =-0.2500 0.5833-0.0833 (  1236 PWs)   bands (ev):

    -6.3346  -0.1567   2.4816   3.4060

          k = 0.5833-0.2500 0.7500 (  1220 PWs)   bands (ev):

    -5.6906  -1.4233   1.8093   3.1914

          k = 0.4167-0.0833 0.5833 (  1227 PWs)   bands (ev):

    -6.0800  -0.7000   1.8370   3.6568

          k = 0.2500 0.0833 0.4167 (  1235 PWs)   bands (ev):

    -6.8344   0.8172   3.1795   4.2753

          k =-0.0833 0.7500 0.0833 (  1232 PWs)   bands (ev):

    -5.8627  -0.8697   2.4429   2.7457

          k = 0.7500-0.0833 0.9167 (  1222 PWs)   bands (ev):

    -5.3455  -1.5700   1.6341   2.3761

          k = 0.5833 0.0833 0.7500 (  1222 PWs)   bands (ev):

    -5.4848  -1.4042   1.1389   2.9200

          k = 0.4167 0.2500 0.5833 (  1223 PWs)   bands (ev):

    -6.0316  -1.2053   2.6742   3.7370

          k =-0.0833-0.9167 0.0833 (  1223 PWs)   bands (ev):

    -5.3710  -1.6340   2.1652   2.5178

          k =-0.2500-0.7500-0.0833 (  1228 PWs)   bands (ev):

    -5.7741  -1.0035   1.9409   2.7227

          k =-0.0833-0.5833 0.0833 (  1239 PWs)   bands (ev):

    -6.4748   0.2675   2.9865   3.1875

          k =-0.2500 0.2500 0.2500 (  1227 PWs)   bands (ev):

    -7.0168   0.9696   4.5060   4.5060

          k =-0.4167 0.4167 0.0833 (  1230 PWs)   bands (ev):

    -6.5118  -0.0010   2.4485   4.3304

          k = 0.4167-0.4167 0.9167 (  1223 PWs)   bands (ev):

    -5.7677  -1.1440   1.3411   3.5739

          k = 0.2500-0.2500 0.7500 (  1225 PWs)   bands (ev):

    -5.7333  -1.2187   1.7963   3.0989

          k =-0.2500 0.5833 0.2500 (  1232 PWs)   bands (ev):

    -6.2219  -0.6813   2.8141   3.4770

          k = 0.5833-0.2500 1.0833 (  1217 PWs)   bands (ev):

    -5.6295  -1.2157   1.4449   2.7475

          k = 0.4167-0.0833 0.9167 (  1220 PWs)   bands (ev):

    -5.3193  -1.5015   1.3013   2.1065

          k =-0.2500-1.0833 0.2500 (  1226 PWs)   bands (ev):

    -5.3872  -1.5178   1.1880   2.8992

          k =-0.4167 0.4167 0.4167 (  1215 PWs)   bands (ev):

    -6.1926  -1.2944   4.1015   4.1015

          k = 0.4167-0.4167 1.2500 (  1217 PWs)   bands (ev):

    -5.8314  -1.4730   2.2583   3.6917

     highest occupied level (ev):     5.0716

!    total energy              =     -17.32643734 Ry
     Harris-Foulkes estimate   =     -17.32643779 Ry
     estimated scf accuracy    <       0.00000065 Ry

     The total energy is the sum of the following terms:

     one-electron contribution =       3.19016633 Ry
     hartree contribution      =       1.48331794 Ry
     xc contribution           =      -4.82145663 Ry
     ewald contribution        =     -17.17846498 Ry

     convergence has been achieved in   7 iterations

     Writing output data file gaas.save\

     init_run     :      0.94s CPU      0.21s WALL (       1 calls)
     electrons    :      6.64s CPU      1.11s WALL (       1 calls)

     Called by init_run:
     wfcinit      :      0.67s CPU      0.11s WALL (       1 calls)
     potinit      :      0.19s CPU      0.00s WALL (       1 calls)
     hinit0       :      0.08s CPU      0.10s WALL (       1 calls)

     Called by electrons:
     c_bands      :      5.38s CPU      0.91s WALL (       8 calls)
     sum_band     :      1.17s CPU      0.18s WALL (       8 calls)
     v_of_rho     :      0.28s CPU      0.01s WALL (       8 calls)
     mix_rho      :      0.00s CPU      0.01s WALL (       8 calls)

     Called by c_bands:
     init_us_2    :      0.30s CPU      0.05s WALL (     476 calls)
     cegterg      :      4.80s CPU      0.83s WALL (     224 calls)

     Called by sum_band:

     Called by *egterg:
     h_psi        :      4.16s CPU      0.77s WALL (     740 calls)
     g_psi        :      0.09s CPU      0.02s WALL (     488 calls)
     cdiaghg      :      0.36s CPU      0.02s WALL (     684 calls)

     Called by h_psi:
     h_psi:pot    :      3.95s CPU      0.73s WALL (     740 calls)
     h_psi:calbec :      0.00s CPU      0.01s WALL (     740 calls)
     vloc_psi     :      3.95s CPU      0.71s WALL (     740 calls)
     add_vuspsi   :      0.00s CPU      0.01s WALL (     740 calls)

     General routines
     calbec       :      0.00s CPU      0.01s WALL (     740 calls)
     fft          :      0.00s CPU      0.00s WALL (      24 calls)
     ffts         :      0.00s CPU      0.00s WALL (       8 calls)
     fftw         :      2.42s CPU      0.37s WALL (    6240 calls)

     Parallel routines

     PWSCF        :      7.97s CPU      1.62s WALL


   This run was terminated on:  23:44:48  31Jul2021            

=------------------------------------------------------------------------------=
   JOB DONE.
=------------------------------------------------------------------------------=
