
     Program PHONON v.6.4.1 starts on 31Jul2021 at 14:48:45 

     This program is part of the open-source Quantum ESPRESSO suite
     for quantum simulation of materials; please cite
         "P. Giannozzi et al., J. Phys.:Condens. Matter 21 395502 (2009);
         "P. Giannozzi et al., J. Phys.:Condens. Matter 29 465901 (2017);
          URL http://www.quantum-espresso.org", 
     in publications or presentations arising from this work. More details at
     http://www.quantum-espresso.org/quote

     Parallel version (MPI & OpenMP), running on      12 processor cores
     Number of MPI processes:                 1
     Threads/MPI process:                    12

     MPI processes distributed on     1 nodes

     Reading data from directory:
     ./\gaas.save\

     IMPORTANT: XC functional enforced from input :
     Exchange-correlation      = PZ ( 1  1  0  0 0 0)
     Any further DFT definition will be discarded
     Please, verify this is what you really want


     G-vector sticks info
     --------------------
     sticks:   dense  smooth     PW     G-vecs:    dense   smooth      PW
     Sum         595     595    199                 9841     9841    1807


     Calculation of q =    0.0000000   0.0000000   0.0000000

     phonons of GaAs                                                            

     bravais-lattice index     =            2
     lattice parameter (alat)  =      10.4749  a.u.
     unit-cell volume          =     287.3390 (a.u.)^3
     number of atoms/cell      =            2
     number of atomic types    =            2
     kinetic-energy cut-off    =      40.0000  Ry
     charge density cut-off    =     160.0000  Ry
     convergence threshold     =      1.0E-14
     beta                      =       0.7000
     number of iterations used =            4
     Exchange-correlation      = PZ ( 1  1  0  0 0 0)


     celldm(1)=   10.47494  celldm(2)=    0.00000  celldm(3)=    0.00000
     celldm(4)=    0.00000  celldm(5)=    0.00000  celldm(6)=    0.00000

     crystal axes: (cart. coord. in units of alat)
               a(1) = ( -0.5000  0.0000  0.5000 )  
               a(2) = (  0.0000  0.5000  0.5000 )  
               a(3) = ( -0.5000  0.5000  0.0000 )  

     reciprocal axes: (cart. coord. in units 2 pi/alat)
               b(1) = ( -1.0000 -1.0000  1.0000 )  
               b(2) = (  1.0000  1.0000  1.0000 )  
               b(3) = ( -1.0000  1.0000 -1.0000 )  


     Atoms inside the unit cell: 

     Cartesian axes

     site n.  atom      mass           positions (alat units)
        1     Ga  69.7200   tau(    1) = (    0.00000    0.00000    0.00000  )
        2     As  74.9200   tau(    2) = (   -0.25000    0.25000    0.25000  )

     Computing dynamical matrix for 
                    q = (   0.0000000   0.0000000   0.0000000 )

     25 Sym.Ops. (with q -> -q+G )


     G cutoff =  444.6961  (   9841 G-vectors)     FFT grid: ( 30, 30, 30)
     number of k points=    28
                       cart. coord. in units 2pi/alat
        k(    1) = (  -0.0833333   0.0833333   0.0833333), wk =   0.0185185
        k(    2) = (  -0.2500000   0.2500000  -0.0833333), wk =   0.0555556
        k(    3) = (  -0.4166667   0.4166667  -0.2500000), wk =   0.0555556
        k(    4) = (   0.4166667  -0.4166667   0.5833333), wk =   0.0555556
        k(    5) = (   0.2500000  -0.2500000   0.4166667), wk =   0.0555556
        k(    6) = (   0.0833333  -0.0833333   0.2500000), wk =   0.0555556
        k(    7) = (  -0.0833333   0.4166667   0.0833333), wk =   0.0555556
        k(    8) = (  -0.2500000   0.5833333  -0.0833333), wk =   0.1111111
        k(    9) = (   0.5833333  -0.2500000   0.7500000), wk =   0.1111111
        k(   10) = (   0.4166667  -0.0833333   0.5833333), wk =   0.1111111
        k(   11) = (   0.2500000   0.0833333   0.4166667), wk =   0.1111111
        k(   12) = (  -0.0833333   0.7500000   0.0833333), wk =   0.0555556
        k(   13) = (   0.7500000  -0.0833333   0.9166667), wk =   0.1111111
        k(   14) = (   0.5833333   0.0833333   0.7500000), wk =   0.1111111
        k(   15) = (   0.4166667   0.2500000   0.5833333), wk =   0.1111111
        k(   16) = (  -0.0833333  -0.9166667   0.0833333), wk =   0.0555556
        k(   17) = (  -0.2500000  -0.7500000  -0.0833333), wk =   0.1111111
        k(   18) = (  -0.0833333  -0.5833333   0.0833333), wk =   0.0555556
        k(   19) = (  -0.2500000   0.2500000   0.2500000), wk =   0.0185185
        k(   20) = (  -0.4166667   0.4166667   0.0833333), wk =   0.0555556
        k(   21) = (   0.4166667  -0.4166667   0.9166667), wk =   0.0555556
        k(   22) = (   0.2500000  -0.2500000   0.7500000), wk =   0.0555556
        k(   23) = (  -0.2500000   0.5833333   0.2500000), wk =   0.0555556
        k(   24) = (   0.5833333  -0.2500000   1.0833333), wk =   0.1111111
        k(   25) = (   0.4166667  -0.0833333   0.9166667), wk =   0.1111111
        k(   26) = (  -0.2500000  -1.0833333   0.2500000), wk =   0.0555556
        k(   27) = (  -0.4166667   0.4166667   0.4166667), wk =   0.0185185
        k(   28) = (   0.4166667  -0.4166667   1.2500000), wk =   0.0555556

     PseudoPot. # 1 for Ga read from file:
     ./\Ga.pz-bhs.UPF
     MD5 check sum: 98e586e88b8512aeea599638ab896ed5
     Pseudo is Norm-conserving, Zval =  3.0
     Generated by new atomic code, or converted to UPF format
     Using radial grid of  523 points,  2 beta functions with: 
                l(1) =   0
                l(2) =   1

     PseudoPot. # 2 for As read from file:
     ./\As.pz-bhs.UPF
     MD5 check sum: 13f7c76a6e1707474fd055f425e5c3c1
     Pseudo is Norm-conserving, Zval =  5.0
     Generated by new atomic code, or converted to UPF format
     Using radial grid of  525 points,  2 beta functions with: 
                l(1) =   0
                l(2) =   1

     Mode symmetry, T_d (-43m)  point group:


     Electric field:
     Dielectric constant
     Born effective charges as d Force / d E


     Atomic displacements:
     There are   2 irreducible representations

     Representation     1      3 modes -T_2  G_15 P_4  To be done

     Representation     2      3 modes -T_2  G_15 P_4  To be done



     Alpha used in Ewald sum =   1.7000
     PHONON       :      2.92s CPU      0.75s WALL


     Electric Fields Calculation

      iter #   1 total cpu time :     4.3 secs   av.it.:   6.9
      thresh= 1.000E-02 alpha_mix =  0.700 |ddv_scf|^2 =  2.588E-07

      iter #   2 total cpu time :     5.8 secs   av.it.:  11.5
      thresh= 5.087E-05 alpha_mix =  0.700 |ddv_scf|^2 =  9.238E-09

      iter #   3 total cpu time :     7.4 secs   av.it.:  11.4
      thresh= 9.611E-06 alpha_mix =  0.700 |ddv_scf|^2 =  1.143E-10

      iter #   4 total cpu time :     9.0 secs   av.it.:  11.5
      thresh= 1.069E-06 alpha_mix =  0.700 |ddv_scf|^2 =  6.368E-13

      iter #   5 total cpu time :    10.4 secs   av.it.:  10.6
      thresh= 7.980E-08 alpha_mix =  0.700 |ddv_scf|^2 =  2.730E-14

      iter #   6 total cpu time :    12.4 secs   av.it.:  11.2
      thresh= 1.652E-08 alpha_mix =  0.700 |ddv_scf|^2 =  7.788E-18

     End of electric fields calculation

          Dielectric constant in cartesian axis 

          (      11.568106239       0.000000000       0.000000000 )
          (       0.000000000      11.568106239       0.000000000 )
          (       0.000000000      -0.000000000      11.568106239 )

          Effective charges (d Force / dE) in cartesian axis

           atom      1   Ga 
      Ex  (        2.02969        0.00000        0.00000 )
      Ey  (        0.00000        2.02969       -0.00000 )
      Ez  (        0.00000       -0.00000        2.02969 )
           atom      2   As 
      Ex  (       -2.04551        0.00000        0.00000 )
      Ey  (        0.00000       -2.04551       -0.00000 )
      Ez  (        0.00000       -0.00000       -2.04551 )


     Representation #  1 modes #   1  2  3

     Self-consistent Calculation

      iter #   1 total cpu time :    14.4 secs   av.it.:   6.7
      thresh= 1.000E-02 alpha_mix =  0.700 |ddv_scf|^2 =  1.130E-07

      iter #   2 total cpu time :    16.8 secs   av.it.:  11.7
      thresh= 3.362E-05 alpha_mix =  0.700 |ddv_scf|^2 =  3.947E-09

      iter #   3 total cpu time :    19.1 secs   av.it.:  11.5
      thresh= 6.282E-06 alpha_mix =  0.700 |ddv_scf|^2 =  1.140E-11

      iter #   4 total cpu time :    21.5 secs   av.it.:  11.3
      thresh= 3.377E-07 alpha_mix =  0.700 |ddv_scf|^2 =  2.881E-13

      iter #   5 total cpu time :    23.7 secs   av.it.:  11.2
      thresh= 5.368E-08 alpha_mix =  0.700 |ddv_scf|^2 =  2.018E-15

     End of self-consistent calculation

     Convergence has been achieved 


     Representation #  2 modes #   4  5  6

     Self-consistent Calculation

      iter #   1 total cpu time :    25.2 secs   av.it.:   5.6
      thresh= 1.000E-02 alpha_mix =  0.700 |ddv_scf|^2 =  1.029E-08

      iter #   2 total cpu time :    27.5 secs   av.it.:  11.4
      thresh= 1.014E-05 alpha_mix =  0.700 |ddv_scf|^2 =  2.818E-11

      iter #   3 total cpu time :    29.7 secs   av.it.:  10.8
      thresh= 5.308E-07 alpha_mix =  0.700 |ddv_scf|^2 =  2.696E-12

      iter #   4 total cpu time :    31.9 secs   av.it.:  10.9
      thresh= 1.642E-07 alpha_mix =  0.700 |ddv_scf|^2 =  3.379E-14

      iter #   5 total cpu time :    34.2 secs   av.it.:  11.5
      thresh= 1.838E-08 alpha_mix =  0.700 |ddv_scf|^2 =  9.076E-17

     End of self-consistent calculation

     Convergence has been achieved 

     Number of q in the star =    1
     List of q in the star:
          1   0.000000000   0.000000000   0.000000000

          Dielectric constant in cartesian axis 

          (      11.568106239       0.000000000       0.000000000 )
          (       0.000000000      11.568106239       0.000000000 )
          (       0.000000000      -0.000000000      11.568106239 )

          Effective charges (d Force / dE) in cartesian axis

           atom      1   Ga 
      Ex  (        2.02969        0.00000        0.00000 )
      Ey  (        0.00000        2.02969       -0.00000 )
      Ez  (        0.00000       -0.00000        2.02969 )
           atom      2   As 
      Ex  (       -2.04551        0.00000        0.00000 )
      Ey  (        0.00000       -2.04551       -0.00000 )
      Ez  (        0.00000       -0.00000       -2.04551 )

     Diagonalizing the dynamical matrix

     q = (    0.000000000   0.000000000   0.000000000 ) 

 **************************************************************************
     freq (    1) =      -0.226209 [THz] =      -7.545522 [cm-1]
     freq (    2) =      -0.226209 [THz] =      -7.545522 [cm-1]
     freq (    3) =      -0.226209 [THz] =      -7.545522 [cm-1]
     freq (    4) =       8.261829 [THz] =     275.584936 [cm-1]
     freq (    5) =       8.261829 [THz] =     275.584936 [cm-1]
     freq (    6) =       8.261829 [THz] =     275.584936 [cm-1]
 **************************************************************************

     Mode symmetry, T_d (-43m)  point group:

     freq (  1 -  3) =         -7.5  [cm-1]   --> T_2  G_15 P_4   I+R
     freq (  4 -  6) =        275.6  [cm-1]   --> T_2  G_15 P_4   I+R

     PHONON       :   3m18.16s CPU     34.27s WALL

     INITIALIZATION: 
     phq_setup    :      0.00s CPU      0.01s WALL (       1 calls)
     phq_init     :      2.12s CPU      0.37s WALL (       1 calls)

     phq_init     :      2.12s CPU      0.37s WALL (       1 calls)
     init_vloc    :      0.09s CPU      0.00s WALL (       1 calls)
     init_us_1    :      0.28s CPU      0.04s WALL (       1 calls)

     DIELECTRIC CONSTANT AND EFFECTIVE CHARGES:
     solve_e      :     67.56s CPU     11.69s WALL (       1 calls)
     dielec       :      0.06s CPU      0.01s WALL (       1 calls)
     zstar_eu     :      1.91s CPU      0.35s WALL (       1 calls)

     DYNAMICAL MATRIX:
     dynmat0      :      0.19s CPU      0.03s WALL (       1 calls)
     phqscf       :    125.58s CPU     21.44s WALL (       1 calls)
     dynmatrix    :      0.00s CPU      0.00s WALL (       1 calls)

     phqscf       :    125.58s CPU     21.44s WALL (       1 calls)
     solve_linter :    125.19s CPU     21.37s WALL (       2 calls)
     drhodv       :      0.30s CPU      0.05s WALL (       2 calls)

     dynmat0      :      0.19s CPU      0.03s WALL (       1 calls)
     dynmat_us    :      0.19s CPU      0.03s WALL (       1 calls)
     d2ionq       :      0.00s CPU      0.01s WALL (       1 calls)

     dynmat_us    :      0.19s CPU      0.03s WALL (       1 calls)

     phqscf       :    125.58s CPU     21.44s WALL (       1 calls)
     solve_linter :    125.19s CPU     21.37s WALL (       2 calls)

     solve_linter :    125.19s CPU     21.37s WALL (       2 calls)
     dvqpsi_us    :      2.83s CPU      0.60s WALL (     336 calls)
     ortho        :      0.67s CPU      0.13s WALL (    1428 calls)
     cgsolve      :    165.11s CPU     28.31s WALL (    1428 calls)
     incdrhoscf   :     10.28s CPU      1.69s WALL (    1344 calls)
     vpsifft      :      4.62s CPU      0.80s WALL (     672 calls)
     dv_of_drho   :      0.09s CPU      0.02s WALL (      48 calls)
     mix_pot      :      0.62s CPU      0.08s WALL (      16 calls)
     psymdvscf    :      3.75s CPU      0.69s WALL (      10 calls)

     dvqpsi_us    :      2.83s CPU      0.60s WALL (     336 calls)
     dvqpsi_us_on :      0.25s CPU      0.04s WALL (     336 calls)

     cgsolve      :    165.11s CPU     28.31s WALL (    1428 calls)
     ch_psi       :    160.36s CPU     27.45s WALL (   17642 calls)

     ch_psi       :    160.36s CPU     27.45s WALL (   17642 calls)
     h_psi        :    141.97s CPU     24.15s WALL (   17642 calls)
     last         :     12.58s CPU      2.25s WALL (   17642 calls)

     h_psi        :    141.97s CPU     24.15s WALL (   17642 calls)
     add_vuspsi   :      1.84s CPU      0.30s WALL (   17642 calls)

     incdrhoscf   :     10.28s CPU      1.69s WALL (    1344 calls)


      General routines
     calbec       :      4.23s CPU      0.69s WALL (   36320 calls)
     fft          :      0.09s CPU      0.02s WALL (     149 calls)
     ffts         :      0.19s CPU      0.03s WALL (     348 calls)
     fftw         :     70.58s CPU     11.55s WALL (  151906 calls)
     davcio       :      1.02s CPU      0.23s WALL (    5438 calls)
     write_rec    :      0.22s CPU      0.06s WALL (      18 calls)


     PHONON       :   3m18.16s CPU     34.27s WALL


   This run was terminated on:  14:49:19  31Jul2021            

=------------------------------------------------------------------------------=
   JOB DONE.
=------------------------------------------------------------------------------=
