
     Program PWSCF v.6.4.1 starts on 31Jul2021 at 23:46: 6 

     This program is part of the open-source Quantum ESPRESSO suite
     for quantum simulation of materials; please cite
         "P. Giannozzi et al., J. Phys.:Condens. Matter 21 395502 (2009);
         "P. Giannozzi et al., J. Phys.:Condens. Matter 29 465901 (2017);
          URL http://www.quantum-espresso.org", 
     in publications or presentations arising from this work. More details at
     http://www.quantum-espresso.org/quote

     Parallel version (MPI & OpenMP), running on      12 processor cores
     Number of MPI processes:                 1
     Threads/MPI process:                    12

     MPI processes distributed on     1 nodes
     Waiting for input...
     Reading input from standard input
     Message from routine read_cards :
     DEPRECATED: no units specified in ATOMIC_POSITIONS card
     Message from routine read_cards :
     ATOMIC_POSITIONS: units set to alat
Warning: card EOF ignored

     Current dimensions of program PWSCF are:
     Max number of different atomic species (ntypx) = 10
     Max number of k-points (npk) =  40000
     Max angular momentum in pseudopotentials (lmaxx) =  3

     Atomic positions and unit cell read from directory:
     ./\gaas.save\


     Subspace diagonalization in iterative solution of the eigenvalue problem:
     a serial algorithm will be used


     G-vector sticks info
     --------------------
     sticks:   dense  smooth     PW     G-vecs:    dense   smooth      PW
     Sum         595     595    187                 9841     9841    1639



     bravais-lattice index     =            2
     lattice parameter (alat)  =      10.4749  a.u.
     unit-cell volume          =     287.3390 (a.u.)^3
     number of atoms/cell      =            2
     number of atomic types    =            2
     number of electrons       =         8.00
     number of Kohn-Sham states=            8
     kinetic-energy cutoff     =      40.0000  Ry
     charge density cutoff     =     160.0000  Ry
     Exchange-correlation      = SLA PZ NOGX NOGC ( 1  1  0  0 0 0)

     celldm(1)=  10.474940  celldm(2)=   0.000000  celldm(3)=   0.000000
     celldm(4)=   0.000000  celldm(5)=   0.000000  celldm(6)=   0.000000

     crystal axes: (cart. coord. in units of alat)
               a(1) = (  -0.500000   0.000000   0.500000 )  
               a(2) = (   0.000000   0.500000   0.500000 )  
               a(3) = (  -0.500000   0.500000   0.000000 )  

     reciprocal axes: (cart. coord. in units 2 pi/alat)
               b(1) = ( -1.000000 -1.000000  1.000000 )  
               b(2) = (  1.000000  1.000000  1.000000 )  
               b(3) = ( -1.000000  1.000000 -1.000000 )  


     PseudoPot. # 1 for Ga read from file:
     ./\Ga.pz-bhs.UPF
     MD5 check sum: 98e586e88b8512aeea599638ab896ed5
     Pseudo is Norm-conserving, Zval =  3.0
     Generated by new atomic code, or converted to UPF format
     Using radial grid of  523 points,  2 beta functions with: 
                l(1) =   0
                l(2) =   1

     PseudoPot. # 2 for As read from file:
     ./\As.pz-bhs.UPF
     MD5 check sum: 13f7c76a6e1707474fd055f425e5c3c1
     Pseudo is Norm-conserving, Zval =  5.0
     Generated by new atomic code, or converted to UPF format
     Using radial grid of  525 points,  2 beta functions with: 
                l(1) =   0
                l(2) =   1

     atomic species   valence    mass     pseudopotential
        Ga             3.00     1.00000     Ga( 1.00)
        As             5.00     1.00000     As( 1.00)

     24 Sym. Ops. (no inversion) found



   Cartesian axes

     site n.     atom                  positions (alat units)
         1           Ga  tau(   1) = (   0.0000000   0.0000000   0.0000000  )
         2           As  tau(   2) = (  -0.2500000   0.2500000   0.2500000  )

     number of k points=    41
                       cart. coord. in units 2pi/alat
        k(    1) = (   0.5000000   0.5000000   0.5000000), wk =   0.0487805
        k(    2) = (   0.4750000   0.4750000   0.4750000), wk =   0.0487805
        k(    3) = (   0.4500000   0.4500000   0.4500000), wk =   0.0487805
        k(    4) = (   0.4250000   0.4250000   0.4250000), wk =   0.0487805
        k(    5) = (   0.4000000   0.4000000   0.4000000), wk =   0.0487805
        k(    6) = (   0.3750000   0.3750000   0.3750000), wk =   0.0487805
        k(    7) = (   0.3500000   0.3500000   0.3500000), wk =   0.0487805
        k(    8) = (   0.3250000   0.3250000   0.3250000), wk =   0.0487805
        k(    9) = (   0.3000000   0.3000000   0.3000000), wk =   0.0487805
        k(   10) = (   0.2750000   0.2750000   0.2750000), wk =   0.0487805
        k(   11) = (   0.2500000   0.2500000   0.2500000), wk =   0.0487805
        k(   12) = (   0.2250000   0.2250000   0.2250000), wk =   0.0487805
        k(   13) = (   0.2000000   0.2000000   0.2000000), wk =   0.0487805
        k(   14) = (   0.1750000   0.1750000   0.1750000), wk =   0.0487805
        k(   15) = (   0.1500000   0.1500000   0.1500000), wk =   0.0487805
        k(   16) = (   0.1250000   0.1250000   0.1250000), wk =   0.0487805
        k(   17) = (   0.1000000   0.1000000   0.1000000), wk =   0.0487805
        k(   18) = (   0.0750000   0.0750000   0.0750000), wk =   0.0487805
        k(   19) = (   0.0500000   0.0500000   0.0500000), wk =   0.0487805
        k(   20) = (   0.0250000   0.0250000   0.0250000), wk =   0.0487805
        k(   21) = (   0.0000000   0.0000000   0.0000000), wk =   0.0487805
        k(   22) = (   0.0500000   0.0000000   0.0000000), wk =   0.0487805
        k(   23) = (   0.1000000   0.0000000   0.0000000), wk =   0.0487805
        k(   24) = (   0.1500000   0.0000000   0.0000000), wk =   0.0487805
        k(   25) = (   0.2000000   0.0000000   0.0000000), wk =   0.0487805
        k(   26) = (   0.2500000   0.0000000   0.0000000), wk =   0.0487805
        k(   27) = (   0.3000000   0.0000000   0.0000000), wk =   0.0487805
        k(   28) = (   0.3500000   0.0000000   0.0000000), wk =   0.0487805
        k(   29) = (   0.4000000   0.0000000   0.0000000), wk =   0.0487805
        k(   30) = (   0.4500000   0.0000000   0.0000000), wk =   0.0487805
        k(   31) = (   0.5000000   0.0000000   0.0000000), wk =   0.0487805
        k(   32) = (   0.5500000   0.0000000   0.0000000), wk =   0.0487805
        k(   33) = (   0.6000000   0.0000000   0.0000000), wk =   0.0487805
        k(   34) = (   0.6500000   0.0000000   0.0000000), wk =   0.0487805
        k(   35) = (   0.7000000   0.0000000   0.0000000), wk =   0.0487805
        k(   36) = (   0.7500000   0.0000000   0.0000000), wk =   0.0487805
        k(   37) = (   0.8000000   0.0000000   0.0000000), wk =   0.0487805
        k(   38) = (   0.8500000   0.0000000   0.0000000), wk =   0.0487805
        k(   39) = (   0.9000000   0.0000000   0.0000000), wk =   0.0487805
        k(   40) = (   0.9500000   0.0000000   0.0000000), wk =   0.0487805
        k(   41) = (   1.0000000   0.0000000   0.0000000), wk =   0.0487805

     Dense  grid:     9841 G-vectors     FFT dimensions: (  30,  30,  30)

     Estimated max dynamical RAM per process >       5.32 MB

     The potential is recalculated from file :
     ./\gaas.save\charge-density

     Starting wfcs are    8 randomized atomic wfcs

     Band Structure Calculation
     Davidson diagonalization with overlap

     ethr =  1.25E-08,  avg # of iterations = 11.9

     total cpu time spent up to now is        1.7 secs

     End of band structure calculation

          k = 0.5000 0.5000 0.5000 (  1224 PWs)   bands (ev):

    -6.0151  -1.6602   4.0455   4.0455   6.5885   9.8720   9.8720  13.1492

          k = 0.4750 0.4750 0.4750 (  1221 PWs)   bands (ev):

    -6.0327  -1.6259   4.0503   4.0503   6.5943   9.8761   9.8761  13.1523

          k = 0.4500 0.4500 0.4500 (  1212 PWs)   bands (ev):

    -6.0838  -1.5247   4.0650   4.0650   6.6119   9.8880   9.8880  13.1596

          k = 0.4250 0.4250 0.4250 (  1215 PWs)   bands (ev):

    -6.1636  -1.3616   4.0893   4.0893   6.6410   9.9064   9.9064  13.1652

          k = 0.4000 0.4000 0.4000 (  1221 PWs)   bands (ev):

    -6.2658  -1.1433   4.1231   4.1231   6.6814   9.9293   9.9293  13.1558

          k = 0.3750 0.3750 0.3750 (  1233 PWs)   bands (ev):

    -6.3834  -0.8770   4.1661   4.1661   6.7329   9.9537   9.9537  13.1076

          k = 0.3500 0.3500 0.3500 (  1233 PWs)   bands (ev):

    -6.5101  -0.5695   4.2181   4.2181   6.7950   9.9755   9.9755  12.9860

          k = 0.3250 0.3250 0.3250 (  1236 PWs)   bands (ev):

    -6.6408  -0.2266   4.2785   4.2785   6.8671   9.9897   9.9897  12.7648

          k = 0.3000 0.3000 0.3000 (  1233 PWs)   bands (ev):

    -6.7712   0.1468   4.3469   4.3469   6.9480   9.9909   9.9909  12.4518

          k = 0.2750 0.2750 0.2750 (  1233 PWs)   bands (ev):

    -6.8981   0.5464   4.4223   4.4223   7.0362   9.9733   9.9733  12.0777

          k = 0.2500 0.2500 0.2500 (  1227 PWs)   bands (ev):

    -7.0191   0.9686   4.5039   4.5039   7.1294   9.9326   9.9326  11.6705

          k = 0.2250 0.2250 0.2250 (  1233 PWs)   bands (ev):

    -7.1323   1.4099   4.5903   4.5903   7.2240   9.8669   9.8669  11.2484

          k = 0.2000 0.2000 0.2000 (  1239 PWs)   bands (ev):

    -7.2362   1.8673   4.6800   4.6800   7.3145   9.7776   9.7776  10.8244

          k = 0.1750 0.1750 0.1750 (  1230 PWs)   bands (ev):

    -7.3296   2.3373   4.7709   4.7709   7.3922   9.6694   9.6694  10.4103

          k = 0.1500 0.1500 0.1500 (  1242 PWs)   bands (ev):

    -7.4120   2.8161   4.8605   4.8605   7.4426   9.5498   9.5498  10.0206

          k = 0.1250 0.1250 0.1250 (  1242 PWs)   bands (ev):

    -7.4825   3.2992   4.9458   4.9458   7.4446   9.4275   9.4275   9.6761

          k = 0.1000 0.1000 0.1000 (  1242 PWs)   bands (ev):

    -7.5407   3.7801   5.0235   5.0235   7.3712   9.3117   9.3117   9.4027

          k = 0.0750 0.0750 0.0750 (  1243 PWs)   bands (ev):

    -7.5862   4.2480   5.0896   5.0896   7.2056   9.2109   9.2109   9.2195

          k = 0.0500 0.0500 0.0500 (  1243 PWs)   bands (ev):

    -7.6189   4.6823   5.1403   5.1403   6.9653   9.1200   9.1328   9.1328

          k = 0.0250 0.0250 0.0250 (  1243 PWs)   bands (ev):

    -7.6386   5.0330   5.1724   5.1724   6.7183   9.0774   9.0833   9.0833

          k = 0.0000 0.0000 0.0000 (  1243 PWs)   bands (ev):

    -7.6452   5.1834   5.1834   5.1834   6.6002   9.0663   9.0663   9.0663

          k = 0.0500 0.0000 0.0000 (  1243 PWs)   bands (ev):

    -7.6364   5.0237   5.1484   5.1484   6.7589   9.0293   9.1142   9.1142

          k = 0.1000 0.0000 0.0000 (  1243 PWs)   bands (ev):

    -7.6102   4.6654   5.0489   5.0489   7.1121   8.9250   9.2526   9.2526

          k = 0.1500 0.0000 0.0000 (  1243 PWs)   bands (ev):

    -7.5665   4.2364   4.8981   4.8981   7.5238   8.7715   9.4678   9.4678

          k = 0.2000 0.0000 0.0000 (  1239 PWs)   bands (ev):

    -7.5056   3.7837   4.7116   4.7116   7.9231   8.6011   9.7440   9.7440

          k = 0.2500 0.0000 0.0000 (  1243 PWs)   bands (ev):

    -7.4276   3.3238   4.5035   4.5035   8.1588   8.5469  10.0664  10.0664

          k = 0.3000 0.0000 0.0000 (  1231 PWs)   bands (ev):

    -7.3329   2.8642   4.2851   4.2851   8.0408   8.7760  10.4234  10.4234

          k = 0.3500 0.0000 0.0000 (  1239 PWs)   bands (ev):

    -7.2221   2.4082   4.0645   4.0645   7.8364   8.9862  10.8060  10.8060

          k = 0.4000 0.0000 0.0000 (  1243 PWs)   bands (ev):

    -7.0956   1.9584   3.8478   3.8478   7.6266   9.0643  11.2076  11.2076

          k = 0.4500 0.0000 0.0000 (  1235 PWs)   bands (ev):

    -6.9541   1.5166   3.6394   3.6394   7.4257   8.9953  11.6231  11.6231

          k = 0.5000 0.0000 0.0000 (  1243 PWs)   bands (ev):

    -6.7991   1.0844   3.4425   3.4425   7.2396   8.8134  12.0487  12.0487

          k = 0.5500 0.0000 0.0000 (  1242 PWs)   bands (ev):

    -6.6316   0.6641   3.2596   3.2596   7.0719   8.5675  12.4813  12.4813

          k = 0.6000 0.0000 0.0000 (  1238 PWs)   bands (ev):

    -6.4537   0.2580   3.0924   3.0924   6.9248   8.2959  12.9182  12.9182

          k = 0.6500 0.0000 0.0000 (  1234 PWs)   bands (ev):

    -6.2681  -0.1306   2.9424   2.9424   6.8001   8.0228  13.3567  13.3567

          k = 0.7000 0.0000 0.0000 (  1230 PWs)   bands (ev):

    -6.0785  -0.4976   2.8106   2.8106   6.6989   7.7629  13.7932  13.7932

          k = 0.7500 0.0000 0.0000 (  1238 PWs)   bands (ev):

    -5.8903  -0.8372   2.6978   2.6978   6.6222   7.5247  14.2229  14.2229

          k = 0.8000 0.0000 0.0000 (  1238 PWs)   bands (ev):

    -5.7106  -1.1416   2.6048   2.6048   6.5701   7.3138  14.6375  14.6375

          k = 0.8500 0.0000 0.0000 (  1226 PWs)   bands (ev):

    -5.5488  -1.4006   2.5319   2.5319   6.5422   7.1345  15.0226  15.0226

          k = 0.9000 0.0000 0.0000 (  1218 PWs)   bands (ev):

    -5.4178  -1.6014   2.4797   2.4797   6.5358   6.9916  15.3528  15.3528

          k = 0.9500 0.0000 0.0000 (  1234 PWs)   bands (ev):

    -5.3317  -1.7299   2.4482   2.4482   6.5435   6.8938  15.5866  15.5866

          k = 1.0000 0.0000 0.0000 (  1234 PWs)   bands (ev):

    -5.3013  -1.7743   2.4377   2.4377   6.5499   6.8573  15.6731  15.6731

     Writing output data file gaas.save\

     init_run     :      0.16s CPU      0.11s WALL (       1 calls)
     electrons    :      6.86s CPU      1.21s WALL (       1 calls)

     Called by init_run:
     wfcinit      :      0.08s CPU      0.01s WALL (       1 calls)
     potinit      :      0.00s CPU      0.00s WALL (       1 calls)
     hinit0       :      0.08s CPU      0.10s WALL (       1 calls)

     Called by electrons:
     c_bands      :      6.86s CPU      1.21s WALL (       1 calls)
     v_of_rho     :      0.00s CPU      0.00s WALL (       1 calls)

     Called by c_bands:
     init_us_2    :      0.00s CPU      0.00s WALL (      41 calls)
     cegterg      :      6.14s CPU      1.04s WALL (      41 calls)

     Called by sum_band:

     Called by *egterg:
     h_psi        :      5.59s CPU      0.95s WALL (     570 calls)
     g_psi        :      0.50s CPU      0.02s WALL (     488 calls)
     cdiaghg      :      0.36s CPU      0.05s WALL (     529 calls)

     Called by h_psi:
     h_psi:pot    :      5.31s CPU      0.92s WALL (     570 calls)
     h_psi:calbec :      0.17s CPU      0.02s WALL (     570 calls)
     vloc_psi     :      5.02s CPU      0.89s WALL (     570 calls)
     add_vuspsi   :      0.00s CPU      0.01s WALL (     570 calls)

     General routines
     calbec       :      0.11s CPU      0.02s WALL (     570 calls)
     fft          :      0.00s CPU      0.00s WALL (       3 calls)
     fftw         :      2.55s CPU      0.43s WALL (    6454 calls)
     davcio       :      0.03s CPU      0.01s WALL (      82 calls)

     Parallel routines

     PWSCF        :      7.62s CPU      1.81s WALL


   This run was terminated on:  23:46: 7  31Jul2021            

=------------------------------------------------------------------------------=
   JOB DONE.
=------------------------------------------------------------------------------=
