
     Program PHONON v.6.4.1 starts on 31Jul2021 at 14:57:31 

     This program is part of the open-source Quantum ESPRESSO suite
     for quantum simulation of materials; please cite
         "P. Giannozzi et al., J. Phys.:Condens. Matter 21 395502 (2009);
         "P. Giannozzi et al., J. Phys.:Condens. Matter 29 465901 (2017);
          URL http://www.quantum-espresso.org", 
     in publications or presentations arising from this work. More details at
     http://www.quantum-espresso.org/quote

     Parallel version (MPI & OpenMP), running on      12 processor cores
     Number of MPI processes:                 1
     Threads/MPI process:                    12

     MPI processes distributed on     1 nodes

     Reading data from directory:
     ./\gaas.save\

     IMPORTANT: XC functional enforced from input :
     Exchange-correlation      = PZ ( 1  1  0  0 0 0)
     Any further DFT definition will be discarded
     Please, verify this is what you really want


     G-vector sticks info
     --------------------
     sticks:   dense  smooth     PW     G-vecs:    dense   smooth      PW
     Sum         595     595    199                 9841     9841    1807



     Dynamical matrices for ( 4, 4, 4)  uniform grid of q-points
     (   8 q-points):
       N         xq(1)         xq(2)         xq(3) 
       1   0.000000000   0.000000000   0.000000000
       2  -0.250000000   0.250000000  -0.250000000
       3   0.500000000  -0.500000000   0.500000000
       4   0.000000000   0.500000000   0.000000000
       5   0.750000000  -0.250000000   0.750000000
       6   0.500000000   0.000000000   0.500000000
       7   0.000000000  -1.000000000   0.000000000
       8  -0.500000000  -1.000000000   0.000000000

     Calculation of q =    0.0000000   0.0000000   0.0000000

     phonons of GaAs                                                            

     bravais-lattice index     =            2
     lattice parameter (alat)  =      10.4749  a.u.
     unit-cell volume          =     287.3390 (a.u.)^3
     number of atoms/cell      =            2
     number of atomic types    =            2
     kinetic-energy cut-off    =      40.0000  Ry
     charge density cut-off    =     160.0000  Ry
     convergence threshold     =      1.0E-14
     beta                      =       0.7000
     number of iterations used =            4
     Exchange-correlation      = PZ ( 1  1  0  0 0 0)


     celldm(1)=   10.47494  celldm(2)=    0.00000  celldm(3)=    0.00000
     celldm(4)=    0.00000  celldm(5)=    0.00000  celldm(6)=    0.00000

     crystal axes: (cart. coord. in units of alat)
               a(1) = ( -0.5000  0.0000  0.5000 )  
               a(2) = (  0.0000  0.5000  0.5000 )  
               a(3) = ( -0.5000  0.5000  0.0000 )  

     reciprocal axes: (cart. coord. in units 2 pi/alat)
               b(1) = ( -1.0000 -1.0000  1.0000 )  
               b(2) = (  1.0000  1.0000  1.0000 )  
               b(3) = ( -1.0000  1.0000 -1.0000 )  


     Atoms inside the unit cell: 

     Cartesian axes

     site n.  atom      mass           positions (alat units)
        1     Ga  69.7230   tau(    1) = (    0.00000    0.00000    0.00000  )
        2     As  74.9216   tau(    2) = (   -0.25000    0.25000    0.25000  )

     Computing dynamical matrix for 
                    q = (   0.0000000   0.0000000   0.0000000 )

     25 Sym.Ops. (with q -> -q+G )


     G cutoff =  444.6961  (   9841 G-vectors)     FFT grid: ( 30, 30, 30)
     number of k points=    28

     PseudoPot. # 1 for Ga read from file:
     ./\Ga.pz-bhs.UPF
     MD5 check sum: 98e586e88b8512aeea599638ab896ed5
     Pseudo is Norm-conserving, Zval =  3.0
     Generated by new atomic code, or converted to UPF format
     Using radial grid of  523 points,  2 beta functions with: 
                l(1) =   0
                l(2) =   1

     PseudoPot. # 2 for As read from file:
     ./\As.pz-bhs.UPF
     MD5 check sum: 13f7c76a6e1707474fd055f425e5c3c1
     Pseudo is Norm-conserving, Zval =  5.0
     Generated by new atomic code, or converted to UPF format
     Using radial grid of  525 points,  2 beta functions with: 
                l(1) =   0
                l(2) =   1

     Mode symmetry, T_d (-43m)  point group:


     Electric field:
     Dielectric constant
     Born effective charges in two ways 


     Atomic displacements:
     There are   2 irreducible representations

     Representation     1      3 modes -T_2  G_15 P_4  To be done

     Representation     2      3 modes -T_2  G_15 P_4  To be done



     Alpha used in Ewald sum =   1.7000
     PHONON       :      2.84s CPU      0.82s WALL


     Electric Fields Calculation

      iter #   1 total cpu time :     4.4 secs   av.it.:   6.9
      thresh= 1.000E-02 alpha_mix =  0.700 |ddv_scf|^2 =  2.588E-07

      iter #   2 total cpu time :     5.9 secs   av.it.:  11.5
      thresh= 5.087E-05 alpha_mix =  0.700 |ddv_scf|^2 =  9.238E-09

      iter #   3 total cpu time :     7.4 secs   av.it.:  11.4
      thresh= 9.611E-06 alpha_mix =  0.700 |ddv_scf|^2 =  1.143E-10

      iter #   4 total cpu time :     8.9 secs   av.it.:  11.5
      thresh= 1.069E-06 alpha_mix =  0.700 |ddv_scf|^2 =  6.368E-13

      iter #   5 total cpu time :    10.4 secs   av.it.:  10.6
      thresh= 7.980E-08 alpha_mix =  0.700 |ddv_scf|^2 =  2.730E-14

      iter #   6 total cpu time :    12.0 secs   av.it.:  11.2
      thresh= 1.652E-08 alpha_mix =  0.700 |ddv_scf|^2 =  7.788E-18

     End of electric fields calculation

          Dielectric constant in cartesian axis 

          (      11.568106239       0.000000000       0.000000000 )
          (       0.000000000      11.568106239       0.000000000 )
          (       0.000000000      -0.000000000      11.568106239 )

          Effective charges (d Force / dE) in cartesian axis

           atom      1   Ga 
      Ex  (        2.02969        0.00000       -0.00000 )
      Ey  (        0.00000        2.02969        0.00000 )
      Ez  (       -0.00000        0.00000        2.02969 )
           atom      2   As 
      Ex  (       -2.04551       -0.00000       -0.00000 )
      Ey  (       -0.00000       -2.04551        0.00000 )
      Ez  (       -0.00000        0.00000       -2.04551 )


     Representation #  1 modes #   1  2  3

     Self-consistent Calculation

      iter #   1 total cpu time :    14.0 secs   av.it.:   6.7
      thresh= 1.000E-02 alpha_mix =  0.700 |ddv_scf|^2 =  1.130E-07

      iter #   2 total cpu time :    16.4 secs   av.it.:  11.7
      thresh= 3.362E-05 alpha_mix =  0.700 |ddv_scf|^2 =  3.947E-09

      iter #   3 total cpu time :    18.8 secs   av.it.:  11.5
      thresh= 6.282E-06 alpha_mix =  0.700 |ddv_scf|^2 =  1.140E-11

      iter #   4 total cpu time :    21.1 secs   av.it.:  11.3
      thresh= 3.377E-07 alpha_mix =  0.700 |ddv_scf|^2 =  2.881E-13

      iter #   5 total cpu time :    23.4 secs   av.it.:  11.2
      thresh= 5.368E-08 alpha_mix =  0.700 |ddv_scf|^2 =  2.018E-15

     End of self-consistent calculation

     Convergence has been achieved 


     Representation #  2 modes #   4  5  6

     Self-consistent Calculation

      iter #   1 total cpu time :    24.9 secs   av.it.:   5.6
      thresh= 1.000E-02 alpha_mix =  0.700 |ddv_scf|^2 =  1.029E-08

      iter #   2 total cpu time :    27.2 secs   av.it.:  11.4
      thresh= 1.014E-05 alpha_mix =  0.700 |ddv_scf|^2 =  2.818E-11

      iter #   3 total cpu time :    29.4 secs   av.it.:  10.8
      thresh= 5.308E-07 alpha_mix =  0.700 |ddv_scf|^2 =  2.696E-12

      iter #   4 total cpu time :    31.6 secs   av.it.:  10.9
      thresh= 1.642E-07 alpha_mix =  0.700 |ddv_scf|^2 =  3.379E-14

      iter #   5 total cpu time :    33.9 secs   av.it.:  11.5
      thresh= 1.838E-08 alpha_mix =  0.700 |ddv_scf|^2 =  9.076E-17

     End of self-consistent calculation

     Convergence has been achieved 

     Number of q in the star =    1
     List of q in the star:
          1   0.000000000   0.000000000   0.000000000

          Dielectric constant in cartesian axis 

          (      11.568106239       0.000000000       0.000000000 )
          (       0.000000000      11.568106239       0.000000000 )
          (       0.000000000      -0.000000000      11.568106239 )

          Effective charges (d Force / dE) in cartesian axis

           atom      1   Ga 
      Ex  (        2.02969        0.00000       -0.00000 )
      Ey  (        0.00000        2.02969        0.00000 )
      Ez  (       -0.00000        0.00000        2.02969 )
           atom      2   As 
      Ex  (       -2.04551       -0.00000       -0.00000 )
      Ey  (       -0.00000       -2.04551        0.00000 )
      Ez  (       -0.00000        0.00000       -2.04551 )

          Effective charges (d P / du) in cartesian axis 

           atom      1   Ga 
      Px  (        2.03044       -0.00000       -0.00000 )
      Py  (       -0.00000        2.03044        0.00000 )
      Pz  (       -0.00000        0.00000        2.03044 )
           atom      2   As 
      Px  (       -2.04623       -0.00000       -0.00000 )
      Py  (       -0.00000       -2.04623        0.00000 )
      Pz  (       -0.00000        0.00000       -2.04623 )

     Diagonalizing the dynamical matrix

     q = (    0.000000000   0.000000000   0.000000000 ) 

 **************************************************************************
     freq (    1) =      -0.226205 [THz] =      -7.545402 [cm-1]
     freq (    2) =      -0.226205 [THz] =      -7.545402 [cm-1]
     freq (    3) =      -0.226205 [THz] =      -7.545402 [cm-1]
     freq (    4) =       8.261694 [THz] =     275.580441 [cm-1]
     freq (    5) =       8.261694 [THz] =     275.580441 [cm-1]
     freq (    6) =       8.261694 [THz] =     275.580441 [cm-1]
 **************************************************************************

     Mode symmetry, T_d (-43m)  point group:

     freq (  1 -  3) =         -7.5  [cm-1]   --> T_2  G_15 P_4   I+R
     freq (  4 -  6) =        275.6  [cm-1]   --> T_2  G_15 P_4   I+R

     Calculation of q =   -0.2500000   0.2500000  -0.2500000

     Subspace diagonalization in iterative solution of the eigenvalue problem:
     a serial algorithm will be used


     G-vector sticks info
     --------------------
     sticks:   dense  smooth     PW     G-vecs:    dense   smooth      PW
     Sum         595     595    199                 9841     9841    1917


     Title: 
     phonons of GaAs                                                            


     bravais-lattice index     =            2
     lattice parameter (alat)  =      10.4749  a.u.
     unit-cell volume          =     287.3390 (a.u.)^3
     number of atoms/cell      =            2
     number of atomic types    =            2
     number of electrons       =         8.00
     number of Kohn-Sham states=            4
     kinetic-energy cutoff     =      40.0000  Ry
     charge density cutoff     =     160.0000  Ry
     Exchange-correlation      = PZ ( 1  1  0  0 0 0)

     celldm(1)=  10.474940  celldm(2)=   0.000000  celldm(3)=   0.000000
     celldm(4)=   0.000000  celldm(5)=   0.000000  celldm(6)=   0.000000

     crystal axes: (cart. coord. in units of alat)
               a(1) = (  -0.500000   0.000000   0.500000 )  
               a(2) = (   0.000000   0.500000   0.500000 )  
               a(3) = (  -0.500000   0.500000   0.000000 )  

     reciprocal axes: (cart. coord. in units 2 pi/alat)
               b(1) = ( -1.000000 -1.000000  1.000000 )  
               b(2) = (  1.000000  1.000000  1.000000 )  
               b(3) = ( -1.000000  1.000000 -1.000000 )  


     PseudoPot. # 1 for Ga read from file:
     ./\Ga.pz-bhs.UPF
     MD5 check sum: 98e586e88b8512aeea599638ab896ed5
     Pseudo is Norm-conserving, Zval =  3.0
     Generated by new atomic code, or converted to UPF format
     Using radial grid of  523 points,  2 beta functions with: 
                l(1) =   0
                l(2) =   1

     PseudoPot. # 2 for As read from file:
     ./\As.pz-bhs.UPF
     MD5 check sum: 13f7c76a6e1707474fd055f425e5c3c1
     Pseudo is Norm-conserving, Zval =  5.0
     Generated by new atomic code, or converted to UPF format
     Using radial grid of  525 points,  2 beta functions with: 
                l(1) =   0
                l(2) =   1

     atomic species   valence    mass     pseudopotential
        Ga             3.00    69.72300     Ga( 1.00)
        As             5.00    74.92160     As( 1.00)

     24 Sym. Ops. (no inversion) found



   Cartesian axes

     site n.     atom                  positions (alat units)
         1           Ga  tau(   1) = (   0.0000000   0.0000000   0.0000000  )
         2           As  tau(   2) = (  -0.2500000   0.2500000   0.2500000  )

     number of k points=   364

     Number of k-points >= 100: set verbosity='high' to print them.

     Dense  grid:     9841 G-vectors     FFT dimensions: (  30,  30,  30)

     Estimated max dynamical RAM per process >       4.62 MB

     The potential is recalculated from file :
     ./\_ph0\gaas.save\charge-density

     Starting wfcs are    8 atomic wfcs

     Band Structure Calculation
     Davidson diagonalization with overlap

     ethr =  1.25E-10,  avg # of iterations = 14.1

     total cpu time spent up to now is       11.5 secs

     End of band structure calculation

     Number of k-points >= 100: set verbosity='high' to print the bands.

     highest occupied level (ev):     5.0691

     Writing output data file gaas.save\

     phonons of GaAs                                                            

     bravais-lattice index     =            2
     lattice parameter (alat)  =      10.4749  a.u.
     unit-cell volume          =     287.3390 (a.u.)^3
     number of atoms/cell      =            2
     number of atomic types    =            2
     kinetic-energy cut-off    =      40.0000  Ry
     charge density cut-off    =     160.0000  Ry
     convergence threshold     =      1.0E-14
     beta                      =       0.7000
     number of iterations used =            4
     Exchange-correlation      = PZ ( 1  1  0  0 0 0)


     celldm(1)=   10.47494  celldm(2)=    0.00000  celldm(3)=    0.00000
     celldm(4)=    0.00000  celldm(5)=    0.00000  celldm(6)=    0.00000

     crystal axes: (cart. coord. in units of alat)
               a(1) = ( -0.5000  0.0000  0.5000 )  
               a(2) = (  0.0000  0.5000  0.5000 )  
               a(3) = ( -0.5000  0.5000  0.0000 )  

     reciprocal axes: (cart. coord. in units 2 pi/alat)
               b(1) = ( -1.0000 -1.0000  1.0000 )  
               b(2) = (  1.0000  1.0000  1.0000 )  
               b(3) = ( -1.0000  1.0000 -1.0000 )  


     Atoms inside the unit cell: 

     Cartesian axes

     site n.  atom      mass           positions (alat units)
        1     Ga  69.7230   tau(    1) = (    0.00000    0.00000    0.00000  )
        2     As  74.9216   tau(    2) = (   -0.25000    0.25000    0.25000  )

     Computing dynamical matrix for 
                    q = (  -0.2500000   0.2500000  -0.2500000 )

      6 Sym.Ops. (no q -> -q+G )


     G cutoff =  444.6961  (   9841 G-vectors)     FFT grid: ( 30, 30, 30)
     number of k points=   364

     PseudoPot. # 1 for Ga read from file:
     ./\Ga.pz-bhs.UPF
     MD5 check sum: 98e586e88b8512aeea599638ab896ed5
     Pseudo is Norm-conserving, Zval =  3.0
     Generated by new atomic code, or converted to UPF format
     Using radial grid of  523 points,  2 beta functions with: 
                l(1) =   0
                l(2) =   1

     PseudoPot. # 2 for As read from file:
     ./\As.pz-bhs.UPF
     MD5 check sum: 13f7c76a6e1707474fd055f425e5c3c1
     Pseudo is Norm-conserving, Zval =  5.0
     Generated by new atomic code, or converted to UPF format
     Using radial grid of  525 points,  2 beta functions with: 
                l(1) =   0
                l(2) =   1

     Mode symmetry, C_3v (3m)   point group:


     Atomic displacements:
     There are   4 irreducible representations

     Representation     1      1 modes -A_1  L_1  To be done

     Representation     2      1 modes -A_1  L_1  To be done

     Representation     3      2 modes -E    L_3  To be done

     Representation     4      2 modes -E    L_3  To be done



     Alpha used in Ewald sum =   1.7000
     PHONON       :   4m26.00s CPU     46.25s WALL



     Representation #  1 mode #   1

     Self-consistent Calculation

      iter #   1 total cpu time :    49.4 secs   av.it.:   6.3
      thresh= 1.000E-02 alpha_mix =  0.700 |ddv_scf|^2 =  2.527E-04

      iter #   2 total cpu time :    53.4 secs   av.it.:   9.2
      thresh= 1.590E-03 alpha_mix =  0.700 |ddv_scf|^2 =  2.846E-03

      iter #   3 total cpu time :    57.0 secs   av.it.:   7.8
      thresh= 5.334E-03 alpha_mix =  0.700 |ddv_scf|^2 =  2.544E-08

      iter #   4 total cpu time :    61.8 secs   av.it.:  10.2
      thresh= 1.595E-05 alpha_mix =  0.700 |ddv_scf|^2 =  5.796E-09

      iter #   5 total cpu time :    66.5 secs   av.it.:   9.6
      thresh= 7.613E-06 alpha_mix =  0.700 |ddv_scf|^2 =  2.224E-11

      iter #   6 total cpu time :    70.8 secs   av.it.:   9.9
      thresh= 4.716E-07 alpha_mix =  0.700 |ddv_scf|^2 =  1.111E-10

      iter #   7 total cpu time :    74.4 secs   av.it.:   7.9
      thresh= 1.054E-06 alpha_mix =  0.700 |ddv_scf|^2 =  6.186E-13

      iter #   8 total cpu time :    78.7 secs   av.it.:  10.0
      thresh= 7.865E-08 alpha_mix =  0.700 |ddv_scf|^2 =  4.126E-13

      iter #   9 total cpu time :    82.7 secs   av.it.:   9.1
      thresh= 6.423E-08 alpha_mix =  0.700 |ddv_scf|^2 =  3.044E-13

      iter #  10 total cpu time :    86.5 secs   av.it.:   8.5
      thresh= 5.517E-08 alpha_mix =  0.700 |ddv_scf|^2 =  8.926E-16

     End of self-consistent calculation

     Convergence has been achieved 


     Representation #  2 mode #   2

     Self-consistent Calculation

      iter #   1 total cpu time :    89.9 secs   av.it.:   7.1
      thresh= 1.000E-02 alpha_mix =  0.700 |ddv_scf|^2 =  9.870E-04

      iter #   2 total cpu time :    94.0 secs   av.it.:   9.2
      thresh= 3.142E-03 alpha_mix =  0.700 |ddv_scf|^2 =  1.139E-02

      iter #   3 total cpu time :    97.5 secs   av.it.:   7.8
      thresh= 1.000E-02 alpha_mix =  0.700 |ddv_scf|^2 =  1.192E-06

      iter #   4 total cpu time :   101.6 secs   av.it.:   9.5
      thresh= 1.092E-04 alpha_mix =  0.700 |ddv_scf|^2 =  2.432E-08

      iter #   5 total cpu time :   106.0 secs   av.it.:   9.8
      thresh= 1.560E-05 alpha_mix =  0.700 |ddv_scf|^2 =  2.627E-10

      iter #   6 total cpu time :   109.9 secs   av.it.:   9.0
      thresh= 1.621E-06 alpha_mix =  0.700 |ddv_scf|^2 =  3.062E-10

      iter #   7 total cpu time :   113.7 secs   av.it.:   8.4
      thresh= 1.750E-06 alpha_mix =  0.700 |ddv_scf|^2 =  1.509E-11

      iter #   8 total cpu time :   117.6 secs   av.it.:   9.0
      thresh= 3.884E-07 alpha_mix =  0.700 |ddv_scf|^2 =  1.283E-13

      iter #   9 total cpu time :   121.5 secs   av.it.:   8.7
      thresh= 3.582E-08 alpha_mix =  0.700 |ddv_scf|^2 =  6.343E-15

     End of self-consistent calculation

     Convergence has been achieved 


     Representation #  3 modes #   3  4

     Self-consistent Calculation

      iter #   1 total cpu time :   127.9 secs   av.it.:   6.8
      thresh= 1.000E-02 alpha_mix =  0.700 |ddv_scf|^2 =  3.148E-07

      iter #   2 total cpu time :   137.4 secs   av.it.:  11.2
      thresh= 5.610E-05 alpha_mix =  0.700 |ddv_scf|^2 =  1.535E-08

      iter #   3 total cpu time :   146.7 secs   av.it.:  11.1
      thresh= 1.239E-05 alpha_mix =  0.700 |ddv_scf|^2 =  2.650E-11

      iter #   4 total cpu time :   155.9 secs   av.it.:  11.0
      thresh= 5.148E-07 alpha_mix =  0.700 |ddv_scf|^2 =  4.810E-13

      iter #   5 total cpu time :   165.0 secs   av.it.:  10.8
      thresh= 6.935E-08 alpha_mix =  0.700 |ddv_scf|^2 =  4.916E-15

     End of self-consistent calculation

     Convergence has been achieved 


     Representation #  4 modes #   5  6

     Self-consistent Calculation

      iter #   1 total cpu time :   170.6 secs   av.it.:   5.6
      thresh= 1.000E-02 alpha_mix =  0.700 |ddv_scf|^2 =  3.693E-08

      iter #   2 total cpu time :   179.9 secs   av.it.:  10.9
      thresh= 1.922E-05 alpha_mix =  0.700 |ddv_scf|^2 =  8.674E-10

      iter #   3 total cpu time :   189.4 secs   av.it.:  11.0
      thresh= 2.945E-06 alpha_mix =  0.700 |ddv_scf|^2 =  1.605E-11

      iter #   4 total cpu time :   198.6 secs   av.it.:  10.8
      thresh= 4.007E-07 alpha_mix =  0.700 |ddv_scf|^2 =  9.671E-13

      iter #   5 total cpu time :   207.3 secs   av.it.:  10.2
      thresh= 9.834E-08 alpha_mix =  0.700 |ddv_scf|^2 =  2.785E-16

     End of self-consistent calculation

     Convergence has been achieved 

     Number of q in the star =    4
     List of q in the star:
          1  -0.250000000   0.250000000  -0.250000000
          2   0.250000000  -0.250000000  -0.250000000
          3  -0.250000000  -0.250000000   0.250000000
          4   0.250000000   0.250000000   0.250000000
     In addition there is the -q list: 
          1   0.250000000  -0.250000000   0.250000000
          2  -0.250000000   0.250000000   0.250000000
          3   0.250000000   0.250000000  -0.250000000
          4  -0.250000000  -0.250000000  -0.250000000

     Diagonalizing the dynamical matrix

     q = (   -0.250000000   0.250000000  -0.250000000 ) 

 **************************************************************************
     freq (    1) =       1.579288 [THz] =      52.679376 [cm-1]
     freq (    2) =       1.579288 [THz] =      52.679376 [cm-1]
     freq (    3) =       3.940162 [THz] =     131.429656 [cm-1]
     freq (    4) =       8.025387 [THz] =     267.698100 [cm-1]
     freq (    5) =       8.025387 [THz] =     267.698100 [cm-1]
     freq (    6) =       8.378093 [THz] =     279.463117 [cm-1]
 **************************************************************************

     Mode symmetry, C_3v (3m)   point group:

     freq (  1 -  2) =         52.7  [cm-1]   --> E    L_3           
     freq (  3 -  3) =        131.4  [cm-1]   --> A_1  L_1           
     freq (  4 -  5) =        267.7  [cm-1]   --> E    L_3           
     freq (  6 -  6) =        279.5  [cm-1]   --> A_1  L_1           

     Calculation of q =    0.5000000  -0.5000000   0.5000000

     G-vector sticks info
     --------------------
     sticks:   dense  smooth     PW     G-vecs:    dense   smooth      PW
     Sum         595     595    211                 9841     9841    2109


     Title: 
     phonons of GaAs                                                            


     bravais-lattice index     =            2
     lattice parameter (alat)  =      10.4749  a.u.
     unit-cell volume          =     287.3390 (a.u.)^3
     number of atoms/cell      =            2
     number of atomic types    =            2
     number of electrons       =         8.00
     number of Kohn-Sham states=            4
     kinetic-energy cutoff     =      40.0000  Ry
     charge density cutoff     =     160.0000  Ry
     Exchange-correlation      = PZ ( 1  1  0  0 0 0)

     celldm(1)=  10.474940  celldm(2)=   0.000000  celldm(3)=   0.000000
     celldm(4)=   0.000000  celldm(5)=   0.000000  celldm(6)=   0.000000

     crystal axes: (cart. coord. in units of alat)
               a(1) = (  -0.500000   0.000000   0.500000 )  
               a(2) = (   0.000000   0.500000   0.500000 )  
               a(3) = (  -0.500000   0.500000   0.000000 )  

     reciprocal axes: (cart. coord. in units 2 pi/alat)
               b(1) = ( -1.000000 -1.000000  1.000000 )  
               b(2) = (  1.000000  1.000000  1.000000 )  
               b(3) = ( -1.000000  1.000000 -1.000000 )  


     PseudoPot. # 1 for Ga read from file:
     ./\Ga.pz-bhs.UPF
     MD5 check sum: 98e586e88b8512aeea599638ab896ed5
     Pseudo is Norm-conserving, Zval =  3.0
     Generated by new atomic code, or converted to UPF format
     Using radial grid of  523 points,  2 beta functions with: 
                l(1) =   0
                l(2) =   1

     PseudoPot. # 2 for As read from file:
     ./\As.pz-bhs.UPF
     MD5 check sum: 13f7c76a6e1707474fd055f425e5c3c1
     Pseudo is Norm-conserving, Zval =  5.0
     Generated by new atomic code, or converted to UPF format
     Using radial grid of  525 points,  2 beta functions with: 
                l(1) =   0
                l(2) =   1

     atomic species   valence    mass     pseudopotential
        Ga             3.00    69.72300     Ga( 1.00)
        As             5.00    74.92160     As( 1.00)

     24 Sym. Ops. (no inversion) found



   Cartesian axes

     site n.     atom                  positions (alat units)
         1           Ga  tau(   1) = (   0.0000000   0.0000000   0.0000000  )
         2           As  tau(   2) = (  -0.2500000   0.2500000   0.2500000  )

     number of k points=   182

     Number of k-points >= 100: set verbosity='high' to print them.

     Dense  grid:     9841 G-vectors     FFT dimensions: (  30,  30,  30)

     Estimated max dynamical RAM per process >       4.63 MB

     The potential is recalculated from file :
     ./\_ph0\gaas.save\charge-density

     Starting wfcs are    8 atomic wfcs

     Band Structure Calculation
     Davidson diagonalization with overlap

     ethr =  1.25E-10,  avg # of iterations = 14.3

     total cpu time spent up to now is       17.4 secs

     End of band structure calculation

     Number of k-points >= 100: set verbosity='high' to print the bands.

     highest occupied level (ev):     5.0691

     Writing output data file gaas.save\

     phonons of GaAs                                                            

     bravais-lattice index     =            2
     lattice parameter (alat)  =      10.4749  a.u.
     unit-cell volume          =     287.3390 (a.u.)^3
     number of atoms/cell      =            2
     number of atomic types    =            2
     kinetic-energy cut-off    =      40.0000  Ry
     charge density cut-off    =     160.0000  Ry
     convergence threshold     =      1.0E-14
     beta                      =       0.7000
     number of iterations used =            4
     Exchange-correlation      = PZ ( 1  1  0  0 0 0)


     celldm(1)=   10.47494  celldm(2)=    0.00000  celldm(3)=    0.00000
     celldm(4)=    0.00000  celldm(5)=    0.00000  celldm(6)=    0.00000

     crystal axes: (cart. coord. in units of alat)
               a(1) = ( -0.5000  0.0000  0.5000 )  
               a(2) = (  0.0000  0.5000  0.5000 )  
               a(3) = ( -0.5000  0.5000  0.0000 )  

     reciprocal axes: (cart. coord. in units 2 pi/alat)
               b(1) = ( -1.0000 -1.0000  1.0000 )  
               b(2) = (  1.0000  1.0000  1.0000 )  
               b(3) = ( -1.0000  1.0000 -1.0000 )  


     Atoms inside the unit cell: 

     Cartesian axes

     site n.  atom      mass           positions (alat units)
        1     Ga  69.7230   tau(    1) = (    0.00000    0.00000    0.00000  )
        2     As  74.9216   tau(    2) = (   -0.25000    0.25000    0.25000  )

     Computing dynamical matrix for 
                    q = (   0.5000000  -0.5000000   0.5000000 )

      7 Sym.Ops. (with q -> -q+G )


     G cutoff =  444.6961  (   9841 G-vectors)     FFT grid: ( 30, 30, 30)
     number of k points=   182

     PseudoPot. # 1 for Ga read from file:
     ./\Ga.pz-bhs.UPF
     MD5 check sum: 98e586e88b8512aeea599638ab896ed5
     Pseudo is Norm-conserving, Zval =  3.0
     Generated by new atomic code, or converted to UPF format
     Using radial grid of  523 points,  2 beta functions with: 
                l(1) =   0
                l(2) =   1

     PseudoPot. # 2 for As read from file:
     ./\As.pz-bhs.UPF
     MD5 check sum: 13f7c76a6e1707474fd055f425e5c3c1
     Pseudo is Norm-conserving, Zval =  5.0
     Generated by new atomic code, or converted to UPF format
     Using radial grid of  525 points,  2 beta functions with: 
                l(1) =   0
                l(2) =   1

     Mode symmetry, C_3v (3m)   point group:


     Atomic displacements:
     There are   4 irreducible representations

     Representation     1      1 modes -A_1  L_1  To be done

     Representation     2      1 modes -A_1  L_1  To be done

     Representation     3      2 modes -E    L_3  To be done

     Representation     4      2 modes -E    L_3  To be done



     Alpha used in Ewald sum =   1.7000
     PHONON       :  20m47.06s CPU   3m33.95s WALL



     Representation #  1 mode #   1

     Self-consistent Calculation

      iter #   1 total cpu time :   215.6 secs   av.it.:   6.2
      thresh= 1.000E-02 alpha_mix =  0.700 |ddv_scf|^2 =  1.828E-05

      iter #   2 total cpu time :   218.0 secs   av.it.:   9.8
      thresh= 4.275E-04 alpha_mix =  0.700 |ddv_scf|^2 =  3.920E-05

      iter #   3 total cpu time :   220.0 secs   av.it.:   9.1
      thresh= 6.261E-04 alpha_mix =  0.700 |ddv_scf|^2 =  1.142E-07

      iter #   4 total cpu time :   222.1 secs   av.it.:   9.4
      thresh= 3.379E-05 alpha_mix =  0.700 |ddv_scf|^2 =  1.755E-09

      iter #   5 total cpu time :   224.2 secs   av.it.:   9.7
      thresh= 4.189E-06 alpha_mix =  0.700 |ddv_scf|^2 =  1.227E-11

      iter #   6 total cpu time :   226.5 secs   av.it.:  10.0
      thresh= 3.502E-07 alpha_mix =  0.700 |ddv_scf|^2 =  5.100E-13

      iter #   7 total cpu time :   228.6 secs   av.it.:   9.7
      thresh= 7.141E-08 alpha_mix =  0.700 |ddv_scf|^2 =  1.386E-14

      iter #   8 total cpu time :   230.7 secs   av.it.:   9.5
      thresh= 1.177E-08 alpha_mix =  0.700 |ddv_scf|^2 =  5.014E-17

     End of self-consistent calculation

     Convergence has been achieved 


     Representation #  2 mode #   2

     Self-consistent Calculation

      iter #   1 total cpu time :   232.5 secs   av.it.:   7.0
      thresh= 1.000E-02 alpha_mix =  0.700 |ddv_scf|^2 =  8.654E-05

      iter #   2 total cpu time :   234.7 secs   av.it.:   9.8
      thresh= 9.303E-04 alpha_mix =  0.700 |ddv_scf|^2 =  2.019E-04

      iter #   3 total cpu time :   236.7 secs   av.it.:   9.0
      thresh= 1.421E-03 alpha_mix =  0.700 |ddv_scf|^2 =  8.525E-08

      iter #   4 total cpu time :   238.8 secs   av.it.:   9.6
      thresh= 2.920E-05 alpha_mix =  0.700 |ddv_scf|^2 =  8.609E-10

      iter #   5 total cpu time :   240.9 secs   av.it.:   9.3
      thresh= 2.934E-06 alpha_mix =  0.700 |ddv_scf|^2 =  2.334E-11

      iter #   6 total cpu time :   243.1 secs   av.it.:  10.0
      thresh= 4.831E-07 alpha_mix =  0.700 |ddv_scf|^2 =  2.399E-12

      iter #   7 total cpu time :   245.2 secs   av.it.:   9.8
      thresh= 1.549E-07 alpha_mix =  0.700 |ddv_scf|^2 =  2.906E-15

     End of self-consistent calculation

     Convergence has been achieved 


     Representation #  3 modes #   3  4

     Self-consistent Calculation

      iter #   1 total cpu time :   248.4 secs   av.it.:   6.7
      thresh= 1.000E-02 alpha_mix =  0.700 |ddv_scf|^2 =  3.698E-07

      iter #   2 total cpu time :   253.2 secs   av.it.:  11.2
      thresh= 6.081E-05 alpha_mix =  0.700 |ddv_scf|^2 =  2.245E-08

      iter #   3 total cpu time :   257.9 secs   av.it.:  11.0
      thresh= 1.498E-05 alpha_mix =  0.700 |ddv_scf|^2 =  2.702E-11

      iter #   4 total cpu time :   262.5 secs   av.it.:  10.9
      thresh= 5.198E-07 alpha_mix =  0.700 |ddv_scf|^2 =  1.420E-13

      iter #   5 total cpu time :   267.1 secs   av.it.:  10.7
      thresh= 3.768E-08 alpha_mix =  0.700 |ddv_scf|^2 =  3.669E-15

     End of self-consistent calculation

     Convergence has been achieved 


     Representation #  4 modes #   5  6

     Self-consistent Calculation

      iter #   1 total cpu time :   269.9 secs   av.it.:   5.8
      thresh= 1.000E-02 alpha_mix =  0.700 |ddv_scf|^2 =  4.832E-08

      iter #   2 total cpu time :   274.7 secs   av.it.:  11.1
      thresh= 2.198E-05 alpha_mix =  0.700 |ddv_scf|^2 =  1.851E-09

      iter #   3 total cpu time :   279.3 secs   av.it.:  11.0
      thresh= 4.302E-06 alpha_mix =  0.700 |ddv_scf|^2 =  1.891E-11

      iter #   4 total cpu time :   283.9 secs   av.it.:  10.8
      thresh= 4.348E-07 alpha_mix =  0.700 |ddv_scf|^2 =  1.069E-12

      iter #   5 total cpu time :   288.3 secs   av.it.:  10.1
      thresh= 1.034E-07 alpha_mix =  0.700 |ddv_scf|^2 =  1.485E-15

     End of self-consistent calculation

     Convergence has been achieved 

     Number of q in the star =    4
     List of q in the star:
          1   0.500000000  -0.500000000   0.500000000
          2  -0.500000000   0.500000000   0.500000000
          3   0.500000000   0.500000000  -0.500000000
          4  -0.500000000  -0.500000000  -0.500000000

     Diagonalizing the dynamical matrix

     q = (    0.500000000  -0.500000000   0.500000000 ) 

 **************************************************************************
     freq (    1) =       1.877549 [THz] =      62.628300 [cm-1]
     freq (    2) =       1.877549 [THz] =      62.628300 [cm-1]
     freq (    3) =       6.382696 [THz] =     212.903815 [cm-1]
     freq (    4) =       7.174435 [THz] =     239.313377 [cm-1]
     freq (    5) =       7.961226 [THz] =     265.557900 [cm-1]
     freq (    6) =       7.961226 [THz] =     265.557900 [cm-1]
 **************************************************************************

     Mode symmetry, C_3v (3m)   point group:

     freq (  1 -  2) =         62.6  [cm-1]   --> E    L_3           
     freq (  3 -  3) =        212.9  [cm-1]   --> A_1  L_1           
     freq (  4 -  4) =        239.3  [cm-1]   --> A_1  L_1           
     freq (  5 -  6) =        265.6  [cm-1]   --> E    L_3           

     Calculation of q =    0.0000000   0.5000000   0.0000000

     G-vector sticks info
     --------------------
     sticks:   dense  smooth     PW     G-vecs:    dense   smooth      PW
     Sum         595     595    211                 9841     9841    1989


     Title: 
     phonons of GaAs                                                            


     bravais-lattice index     =            2
     lattice parameter (alat)  =      10.4749  a.u.
     unit-cell volume          =     287.3390 (a.u.)^3
     number of atoms/cell      =            2
     number of atomic types    =            2
     number of electrons       =         8.00
     number of Kohn-Sham states=            4
     kinetic-energy cutoff     =      40.0000  Ry
     charge density cutoff     =     160.0000  Ry
     Exchange-correlation      = PZ ( 1  1  0  0 0 0)

     celldm(1)=  10.474940  celldm(2)=   0.000000  celldm(3)=   0.000000
     celldm(4)=   0.000000  celldm(5)=   0.000000  celldm(6)=   0.000000

     crystal axes: (cart. coord. in units of alat)
               a(1) = (  -0.500000   0.000000   0.500000 )  
               a(2) = (   0.000000   0.500000   0.500000 )  
               a(3) = (  -0.500000   0.500000   0.000000 )  

     reciprocal axes: (cart. coord. in units 2 pi/alat)
               b(1) = ( -1.000000 -1.000000  1.000000 )  
               b(2) = (  1.000000  1.000000  1.000000 )  
               b(3) = ( -1.000000  1.000000 -1.000000 )  


     PseudoPot. # 1 for Ga read from file:
     ./\Ga.pz-bhs.UPF
     MD5 check sum: 98e586e88b8512aeea599638ab896ed5
     Pseudo is Norm-conserving, Zval =  3.0
     Generated by new atomic code, or converted to UPF format
     Using radial grid of  523 points,  2 beta functions with: 
                l(1) =   0
                l(2) =   1

     PseudoPot. # 2 for As read from file:
     ./\As.pz-bhs.UPF
     MD5 check sum: 13f7c76a6e1707474fd055f425e5c3c1
     Pseudo is Norm-conserving, Zval =  5.0
     Generated by new atomic code, or converted to UPF format
     Using radial grid of  525 points,  2 beta functions with: 
                l(1) =   0
                l(2) =   1

     atomic species   valence    mass     pseudopotential
        Ga             3.00    69.72300     Ga( 1.00)
        As             5.00    74.92160     As( 1.00)

     24 Sym. Ops. (no inversion) found



   Cartesian axes

     site n.     atom                  positions (alat units)
         1           Ga  tau(   1) = (   0.0000000   0.0000000   0.0000000  )
         2           As  tau(   2) = (  -0.2500000   0.2500000   0.2500000  )

     number of k points=   504

     Number of k-points >= 100: set verbosity='high' to print them.

     Dense  grid:     9841 G-vectors     FFT dimensions: (  30,  30,  30)

     Estimated max dynamical RAM per process >       4.62 MB

     The potential is recalculated from file :
     ./\_ph0\gaas.save\charge-density

     Starting wfcs are    8 atomic wfcs

     Band Structure Calculation
     Davidson diagonalization with overlap

     ethr =  1.25E-10,  avg # of iterations = 14.2

     total cpu time spent up to now is       33.1 secs

     End of band structure calculation

     Number of k-points >= 100: set verbosity='high' to print the bands.

     highest occupied level (ev):     5.0691

     Writing output data file gaas.save\

     phonons of GaAs                                                            

     bravais-lattice index     =            2
     lattice parameter (alat)  =      10.4749  a.u.
     unit-cell volume          =     287.3390 (a.u.)^3
     number of atoms/cell      =            2
     number of atomic types    =            2
     kinetic-energy cut-off    =      40.0000  Ry
     charge density cut-off    =     160.0000  Ry
     convergence threshold     =      1.0E-14
     beta                      =       0.7000
     number of iterations used =            4
     Exchange-correlation      = PZ ( 1  1  0  0 0 0)


     celldm(1)=   10.47494  celldm(2)=    0.00000  celldm(3)=    0.00000
     celldm(4)=    0.00000  celldm(5)=    0.00000  celldm(6)=    0.00000

     crystal axes: (cart. coord. in units of alat)
               a(1) = ( -0.5000  0.0000  0.5000 )  
               a(2) = (  0.0000  0.5000  0.5000 )  
               a(3) = ( -0.5000  0.5000  0.0000 )  

     reciprocal axes: (cart. coord. in units 2 pi/alat)
               b(1) = ( -1.0000 -1.0000  1.0000 )  
               b(2) = (  1.0000  1.0000  1.0000 )  
               b(3) = ( -1.0000  1.0000 -1.0000 )  


     Atoms inside the unit cell: 

     Cartesian axes

     site n.  atom      mass           positions (alat units)
        1     Ga  69.7230   tau(    1) = (    0.00000    0.00000    0.00000  )
        2     As  74.9216   tau(    2) = (   -0.25000    0.25000    0.25000  )

     Computing dynamical matrix for 
                    q = (   0.0000000   0.5000000   0.0000000 )

      4 Sym.Ops. (no q -> -q+G )


     G cutoff =  444.6961  (   9841 G-vectors)     FFT grid: ( 30, 30, 30)
     number of k points=   504

     PseudoPot. # 1 for Ga read from file:
     ./\Ga.pz-bhs.UPF
     MD5 check sum: 98e586e88b8512aeea599638ab896ed5
     Pseudo is Norm-conserving, Zval =  3.0
     Generated by new atomic code, or converted to UPF format
     Using radial grid of  523 points,  2 beta functions with: 
                l(1) =   0
                l(2) =   1

     PseudoPot. # 2 for As read from file:
     ./\As.pz-bhs.UPF
     MD5 check sum: 13f7c76a6e1707474fd055f425e5c3c1
     Pseudo is Norm-conserving, Zval =  5.0
     Generated by new atomic code, or converted to UPF format
     Using radial grid of  525 points,  2 beta functions with: 
                l(1) =   0
                l(2) =   1

     Mode symmetry, C_2v (mm2)  point group:


     Atomic displacements:
     There are   6 irreducible representations

     Representation     1      1 modes -A_1  D_1  S_1  To be done

     Representation     2      1 modes -A_1  D_1  S_1  To be done

     Representation     3      1 modes -B_1  D_3  S_3  To be done

     Representation     4      1 modes -B_1  D_3  S_3  To be done

     Representation     5      1 modes -B_2  D_4  S_4  To be done

     Representation     6      1 modes -B_2  D_4  S_4  To be done



     Alpha used in Ewald sum =   1.7000
     PHONON       :  29m38.22s CPU   5m 4.95s WALL



     Representation #  1 mode #   1

     Self-consistent Calculation

      iter #   1 total cpu time :   309.7 secs   av.it.:   7.2
      thresh= 1.000E-02 alpha_mix =  0.700 |ddv_scf|^2 =  6.155E-04

      iter #   2 total cpu time :   315.5 secs   av.it.:   9.5
      thresh= 2.481E-03 alpha_mix =  0.700 |ddv_scf|^2 =  6.264E-03

      iter #   3 total cpu time :   320.5 secs   av.it.:   8.0
      thresh= 7.915E-03 alpha_mix =  0.700 |ddv_scf|^2 =  2.561E-07

      iter #   4 total cpu time :   326.5 secs   av.it.:  10.1
      thresh= 5.060E-05 alpha_mix =  0.700 |ddv_scf|^2 =  1.534E-08

      iter #   5 total cpu time :   332.5 secs   av.it.:   9.9
      thresh= 1.239E-05 alpha_mix =  0.700 |ddv_scf|^2 =  2.420E-11

      iter #   6 total cpu time :   338.4 secs   av.it.:   9.8
      thresh= 4.920E-07 alpha_mix =  0.700 |ddv_scf|^2 =  7.363E-12

      iter #   7 total cpu time :   344.2 secs   av.it.:   9.3
      thresh= 2.714E-07 alpha_mix =  0.700 |ddv_scf|^2 =  8.113E-12

      iter #   8 total cpu time :   349.3 secs   av.it.:   8.2
      thresh= 2.848E-07 alpha_mix =  0.700 |ddv_scf|^2 =  2.306E-14

      iter #   9 total cpu time :   354.8 secs   av.it.:   9.1
      thresh= 1.519E-08 alpha_mix =  0.700 |ddv_scf|^2 =  1.708E-15

     End of self-consistent calculation

     Convergence has been achieved 


     Representation #  2 mode #   2

     Self-consistent Calculation

      iter #   1 total cpu time :   359.0 secs   av.it.:   6.3
      thresh= 1.000E-02 alpha_mix =  0.700 |ddv_scf|^2 =  1.486E-04

      iter #   2 total cpu time :   364.7 secs   av.it.:   9.4
      thresh= 1.219E-03 alpha_mix =  0.700 |ddv_scf|^2 =  1.469E-03

      iter #   3 total cpu time :   369.7 secs   av.it.:   8.0
      thresh= 3.833E-03 alpha_mix =  0.700 |ddv_scf|^2 =  7.362E-08

      iter #   4 total cpu time :   375.4 secs   av.it.:   9.6
      thresh= 2.713E-05 alpha_mix =  0.700 |ddv_scf|^2 =  1.609E-09

      iter #   5 total cpu time :   381.5 secs   av.it.:  10.1
      thresh= 4.011E-06 alpha_mix =  0.700 |ddv_scf|^2 =  1.813E-11

      iter #   6 total cpu time :   387.3 secs   av.it.:   9.6
      thresh= 4.258E-07 alpha_mix =  0.700 |ddv_scf|^2 =  9.668E-13

      iter #   7 total cpu time :   393.5 secs   av.it.:   9.4
      thresh= 9.832E-08 alpha_mix =  0.700 |ddv_scf|^2 =  1.498E-12

      iter #   8 total cpu time :   399.1 secs   av.it.:   8.1
      thresh= 1.224E-07 alpha_mix =  0.700 |ddv_scf|^2 =  8.771E-15

     End of self-consistent calculation

     Convergence has been achieved 


     Representation #  3 mode #   3

     Self-consistent Calculation

      iter #   1 total cpu time :   403.4 secs   av.it.:   5.6
      thresh= 1.000E-02 alpha_mix =  0.700 |ddv_scf|^2 =  3.499E-07

      iter #   2 total cpu time :   409.4 secs   av.it.:   9.9
      thresh= 5.915E-05 alpha_mix =  0.700 |ddv_scf|^2 =  2.929E-08

      iter #   3 total cpu time :   415.4 secs   av.it.:   9.8
      thresh= 1.711E-05 alpha_mix =  0.700 |ddv_scf|^2 =  8.133E-11

      iter #   4 total cpu time :   421.2 secs   av.it.:   9.7
      thresh= 9.018E-07 alpha_mix =  0.700 |ddv_scf|^2 =  3.721E-12

      iter #   5 total cpu time :   426.8 secs   av.it.:   9.2
      thresh= 1.929E-07 alpha_mix =  0.700 |ddv_scf|^2 =  7.031E-16

     End of self-consistent calculation

     Convergence has been achieved 


     Representation #  4 mode #   4

     Self-consistent Calculation

      iter #   1 total cpu time :   431.2 secs   av.it.:   6.6
      thresh= 1.000E-02 alpha_mix =  0.700 |ddv_scf|^2 =  2.112E-06

      iter #   2 total cpu time :   437.4 secs   av.it.:   9.9
      thresh= 1.453E-04 alpha_mix =  0.700 |ddv_scf|^2 =  2.105E-07

      iter #   3 total cpu time :   443.3 secs   av.it.:   9.8
      thresh= 4.588E-05 alpha_mix =  0.700 |ddv_scf|^2 =  1.203E-10

      iter #   4 total cpu time :   449.7 secs   av.it.:   9.8
      thresh= 1.097E-06 alpha_mix =  0.700 |ddv_scf|^2 =  4.089E-12

      iter #   5 total cpu time :   455.9 secs   av.it.:   9.8
      thresh= 2.022E-07 alpha_mix =  0.700 |ddv_scf|^2 =  1.851E-14

      iter #   6 total cpu time :   462.0 secs   av.it.:  10.3
      thresh= 1.360E-08 alpha_mix =  0.700 |ddv_scf|^2 =  4.509E-17

     End of self-consistent calculation

     Convergence has been achieved 


     Representation #  5 mode #   5

     Self-consistent Calculation

      iter #   1 total cpu time :   466.4 secs   av.it.:   6.6
      thresh= 1.000E-02 alpha_mix =  0.700 |ddv_scf|^2 =  2.112E-06

      iter #   2 total cpu time :   472.4 secs   av.it.:   9.9
      thresh= 1.453E-04 alpha_mix =  0.700 |ddv_scf|^2 =  2.105E-07

      iter #   3 total cpu time :   478.3 secs   av.it.:   9.8
      thresh= 4.588E-05 alpha_mix =  0.700 |ddv_scf|^2 =  1.203E-10

      iter #   4 total cpu time :   484.2 secs   av.it.:   9.8
      thresh= 1.097E-06 alpha_mix =  0.700 |ddv_scf|^2 =  4.089E-12

      iter #   5 total cpu time :   490.6 secs   av.it.:   9.8
      thresh= 2.022E-07 alpha_mix =  0.700 |ddv_scf|^2 =  1.852E-14

      iter #   6 total cpu time :   496.7 secs   av.it.:  10.3
      thresh= 1.361E-08 alpha_mix =  0.700 |ddv_scf|^2 =  4.509E-17

     End of self-consistent calculation

     Convergence has been achieved 


     Representation #  6 mode #   6

     Self-consistent Calculation

      iter #   1 total cpu time :   500.6 secs   av.it.:   5.6
      thresh= 1.000E-02 alpha_mix =  0.700 |ddv_scf|^2 =  3.499E-07

      iter #   2 total cpu time :   506.6 secs   av.it.:   9.9
      thresh= 5.915E-05 alpha_mix =  0.700 |ddv_scf|^2 =  2.928E-08

      iter #   3 total cpu time :   512.5 secs   av.it.:   9.8
      thresh= 1.711E-05 alpha_mix =  0.700 |ddv_scf|^2 =  8.136E-11

      iter #   4 total cpu time :   518.3 secs   av.it.:   9.7
      thresh= 9.020E-07 alpha_mix =  0.700 |ddv_scf|^2 =  3.721E-12

      iter #   5 total cpu time :   523.9 secs   av.it.:   9.2
      thresh= 1.929E-07 alpha_mix =  0.700 |ddv_scf|^2 =  7.043E-16

     End of self-consistent calculation

     Convergence has been achieved 

     Number of q in the star =    6
     List of q in the star:
          1   0.000000000   0.500000000   0.000000000
          2  -0.500000000   0.000000000   0.000000000
          3   0.000000000  -0.500000000   0.000000000
          4   0.000000000   0.000000000   0.500000000
          5   0.000000000   0.000000000  -0.500000000
          6   0.500000000   0.000000000   0.000000000

     Diagonalizing the dynamical matrix

     q = (    0.000000000   0.500000000   0.000000000 ) 

 **************************************************************************
     freq (    1) =       2.139708 [THz] =      71.372967 [cm-1]
     freq (    2) =       2.139708 [THz] =      71.372967 [cm-1]
     freq (    3) =       4.038245 [THz] =     134.701353 [cm-1]
     freq (    4) =       7.762500 [THz] =     258.929125 [cm-1]
     freq (    5) =       7.762500 [THz] =     258.929125 [cm-1]
     freq (    6) =       8.517989 [THz] =     284.129524 [cm-1]
 **************************************************************************

     Mode symmetry, C_2v (mm2)  point group:

     freq (  1 -  1) =         71.4  [cm-1]   --> B_1  D_3  S_3      
     freq (  2 -  2) =         71.4  [cm-1]   --> B_2  D_4  S_4      
     freq (  3 -  3) =        134.7  [cm-1]   --> A_1  D_1  S_1      
     freq (  4 -  4) =        258.9  [cm-1]   --> B_1  D_3  S_3      
     freq (  5 -  5) =        258.9  [cm-1]   --> B_2  D_4  S_4      
     freq (  6 -  6) =        284.1  [cm-1]   --> A_1  D_1  S_1      

     Calculation of q =    0.7500000  -0.2500000   0.7500000

     G-vector sticks info
     --------------------
     sticks:   dense  smooth     PW     G-vecs:    dense   smooth      PW
     Sum         595     595    223                 9841     9841    2229


     Title: 
     phonons of GaAs                                                            


     bravais-lattice index     =            2
     lattice parameter (alat)  =      10.4749  a.u.
     unit-cell volume          =     287.3390 (a.u.)^3
     number of atoms/cell      =            2
     number of atomic types    =            2
     number of electrons       =         8.00
     number of Kohn-Sham states=            4
     kinetic-energy cutoff     =      40.0000  Ry
     charge density cutoff     =     160.0000  Ry
     Exchange-correlation      = PZ ( 1  1  0  0 0 0)

     celldm(1)=  10.474940  celldm(2)=   0.000000  celldm(3)=   0.000000
     celldm(4)=   0.000000  celldm(5)=   0.000000  celldm(6)=   0.000000

     crystal axes: (cart. coord. in units of alat)
               a(1) = (  -0.500000   0.000000   0.500000 )  
               a(2) = (   0.000000   0.500000   0.500000 )  
               a(3) = (  -0.500000   0.500000   0.000000 )  

     reciprocal axes: (cart. coord. in units 2 pi/alat)
               b(1) = ( -1.000000 -1.000000  1.000000 )  
               b(2) = (  1.000000  1.000000  1.000000 )  
               b(3) = ( -1.000000  1.000000 -1.000000 )  


     PseudoPot. # 1 for Ga read from file:
     ./\Ga.pz-bhs.UPF
     MD5 check sum: 98e586e88b8512aeea599638ab896ed5
     Pseudo is Norm-conserving, Zval =  3.0
     Generated by new atomic code, or converted to UPF format
     Using radial grid of  523 points,  2 beta functions with: 
                l(1) =   0
                l(2) =   1

     PseudoPot. # 2 for As read from file:
     ./\As.pz-bhs.UPF
     MD5 check sum: 13f7c76a6e1707474fd055f425e5c3c1
     Pseudo is Norm-conserving, Zval =  5.0
     Generated by new atomic code, or converted to UPF format
     Using radial grid of  525 points,  2 beta functions with: 
                l(1) =   0
                l(2) =   1

     atomic species   valence    mass     pseudopotential
        Ga             3.00    69.72300     Ga( 1.00)
        As             5.00    74.92160     As( 1.00)

     24 Sym. Ops. (no inversion) found



   Cartesian axes

     site n.     atom                  positions (alat units)
         1           Ga  tau(   1) = (   0.0000000   0.0000000   0.0000000  )
         2           As  tau(   2) = (  -0.2500000   0.2500000   0.2500000  )

     number of k points=   936

     Number of k-points >= 100: set verbosity='high' to print them.

     Dense  grid:     9841 G-vectors     FFT dimensions: (  30,  30,  30)

     Estimated max dynamical RAM per process >       4.63 MB

     The potential is recalculated from file :
     ./\_ph0\gaas.save\charge-density

     Starting wfcs are    8 atomic wfcs

     Band Structure Calculation
     Davidson diagonalization with overlap

     ethr =  1.25E-10,  avg # of iterations = 14.0

     total cpu time spent up to now is       62.3 secs

     End of band structure calculation

     Number of k-points >= 100: set verbosity='high' to print the bands.

     highest occupied level (ev):     5.0691

     Writing output data file gaas.save\

     phonons of GaAs                                                            

     bravais-lattice index     =            2
     lattice parameter (alat)  =      10.4749  a.u.
     unit-cell volume          =     287.3390 (a.u.)^3
     number of atoms/cell      =            2
     number of atomic types    =            2
     kinetic-energy cut-off    =      40.0000  Ry
     charge density cut-off    =     160.0000  Ry
     convergence threshold     =      1.0E-14
     beta                      =       0.7000
     number of iterations used =            4
     Exchange-correlation      = PZ ( 1  1  0  0 0 0)


     celldm(1)=   10.47494  celldm(2)=    0.00000  celldm(3)=    0.00000
     celldm(4)=    0.00000  celldm(5)=    0.00000  celldm(6)=    0.00000

     crystal axes: (cart. coord. in units of alat)
               a(1) = ( -0.5000  0.0000  0.5000 )  
               a(2) = (  0.0000  0.5000  0.5000 )  
               a(3) = ( -0.5000  0.5000  0.0000 )  

     reciprocal axes: (cart. coord. in units 2 pi/alat)
               b(1) = ( -1.0000 -1.0000  1.0000 )  
               b(2) = (  1.0000  1.0000  1.0000 )  
               b(3) = ( -1.0000  1.0000 -1.0000 )  


     Atoms inside the unit cell: 

     Cartesian axes

     site n.  atom      mass           positions (alat units)
        1     Ga  69.7230   tau(    1) = (    0.00000    0.00000    0.00000  )
        2     As  74.9216   tau(    2) = (   -0.25000    0.25000    0.25000  )

     Computing dynamical matrix for 
                    q = (   0.7500000  -0.2500000   0.7500000 )

      2 Sym.Ops. (no q -> -q+G )


     G cutoff =  444.6961  (   9841 G-vectors)     FFT grid: ( 30, 30, 30)
     number of k points=   936

     PseudoPot. # 1 for Ga read from file:
     ./\Ga.pz-bhs.UPF
     MD5 check sum: 98e586e88b8512aeea599638ab896ed5
     Pseudo is Norm-conserving, Zval =  3.0
     Generated by new atomic code, or converted to UPF format
     Using radial grid of  523 points,  2 beta functions with: 
                l(1) =   0
                l(2) =   1

     PseudoPot. # 2 for As read from file:
     ./\As.pz-bhs.UPF
     MD5 check sum: 13f7c76a6e1707474fd055f425e5c3c1
     Pseudo is Norm-conserving, Zval =  5.0
     Generated by new atomic code, or converted to UPF format
     Using radial grid of  525 points,  2 beta functions with: 
                l(1) =   0
                l(2) =   1

     Mode symmetry, C_s (m)     point group:


     Atomic displacements:
     There are   6 irreducible representations

     Representation     1      1 modes -A'  To be done

     Representation     2      1 modes -A'  To be done

     Representation     3      1 modes -A'  To be done

     Representation     4      1 modes -A'  To be done

     Representation     5      1 modes -A''  To be done

     Representation     6      1 modes -A''  To be done



     Alpha used in Ewald sum =   1.7000
     PHONON       :  53m57.11s CPU   9m14.27s WALL



     Representation #  1 mode #   1

     Self-consistent Calculation

      iter #   1 total cpu time :   562.3 secs   av.it.:   6.3
      thresh= 1.000E-02 alpha_mix =  0.700 |ddv_scf|^2 =  1.237E-05

      iter #   2 total cpu time :   573.8 secs   av.it.:  10.2
      thresh= 3.517E-04 alpha_mix =  0.700 |ddv_scf|^2 =  2.498E-05

      iter #   3 total cpu time :   584.3 secs   av.it.:   9.4
      thresh= 4.998E-04 alpha_mix =  0.700 |ddv_scf|^2 =  1.124E-07

      iter #   4 total cpu time :   595.1 secs   av.it.:   9.8
      thresh= 3.352E-05 alpha_mix =  0.700 |ddv_scf|^2 =  1.374E-09

      iter #   5 total cpu time :   606.1 secs   av.it.:  10.0
      thresh= 3.706E-06 alpha_mix =  0.700 |ddv_scf|^2 =  5.329E-11

      iter #   6 total cpu time :   617.3 secs   av.it.:  10.2
      thresh= 7.300E-07 alpha_mix =  0.700 |ddv_scf|^2 =  1.785E-12

      iter #   7 total cpu time :   628.4 secs   av.it.:  10.0
      thresh= 1.336E-07 alpha_mix =  0.700 |ddv_scf|^2 =  1.234E-13

      iter #   8 total cpu time :   639.4 secs   av.it.:  10.1
      thresh= 3.512E-08 alpha_mix =  0.700 |ddv_scf|^2 =  3.840E-14

      iter #   9 total cpu time :   650.1 secs   av.it.:   9.6
      thresh= 1.960E-08 alpha_mix =  0.700 |ddv_scf|^2 =  1.146E-14

      iter #  10 total cpu time :   660.7 secs   av.it.:   9.5
      thresh= 1.070E-08 alpha_mix =  0.700 |ddv_scf|^2 =  4.833E-16

     End of self-consistent calculation

     Convergence has been achieved 


     Representation #  2 mode #   2

     Self-consistent Calculation

      iter #   1 total cpu time :   669.5 secs   av.it.:   7.1
      thresh= 1.000E-02 alpha_mix =  0.700 |ddv_scf|^2 =  3.796E-05

      iter #   2 total cpu time :   680.8 secs   av.it.:  10.2
      thresh= 6.161E-04 alpha_mix =  0.700 |ddv_scf|^2 =  8.082E-05

      iter #   3 total cpu time :   691.1 secs   av.it.:   9.2
      thresh= 8.990E-04 alpha_mix =  0.700 |ddv_scf|^2 =  2.518E-07

      iter #   4 total cpu time :   702.2 secs   av.it.:  10.0
      thresh= 5.018E-05 alpha_mix =  0.700 |ddv_scf|^2 =  4.322E-09

      iter #   5 total cpu time :   713.2 secs   av.it.:  10.0
      thresh= 6.574E-06 alpha_mix =  0.700 |ddv_scf|^2 =  1.671E-10

      iter #   6 total cpu time :   724.3 secs   av.it.:  10.1
      thresh= 1.293E-06 alpha_mix =  0.700 |ddv_scf|^2 =  3.862E-12

      iter #   7 total cpu time :   735.4 secs   av.it.:  10.1
      thresh= 1.965E-07 alpha_mix =  0.700 |ddv_scf|^2 =  1.065E-13

      iter #   8 total cpu time :   746.6 secs   av.it.:  10.2
      thresh= 3.263E-08 alpha_mix =  0.700 |ddv_scf|^2 =  1.381E-14

      iter #   9 total cpu time :   757.6 secs   av.it.:  10.0
      thresh= 1.175E-08 alpha_mix =  0.700 |ddv_scf|^2 =  9.864E-15

     End of self-consistent calculation

     Convergence has been achieved 


     Representation #  3 mode #   3

     Self-consistent Calculation

      iter #   1 total cpu time :   766.2 secs   av.it.:   7.1
      thresh= 1.000E-02 alpha_mix =  0.700 |ddv_scf|^2 =  2.897E-05

      iter #   2 total cpu time :   777.5 secs   av.it.:  10.2
      thresh= 5.382E-04 alpha_mix =  0.700 |ddv_scf|^2 =  5.314E-05

      iter #   3 total cpu time :   788.0 secs   av.it.:   9.4
      thresh= 7.290E-04 alpha_mix =  0.700 |ddv_scf|^2 =  5.299E-07

      iter #   4 total cpu time :   798.8 secs   av.it.:   9.8
      thresh= 7.279E-05 alpha_mix =  0.700 |ddv_scf|^2 =  3.973E-09

      iter #   5 total cpu time :   810.0 secs   av.it.:  10.1
      thresh= 6.303E-06 alpha_mix =  0.700 |ddv_scf|^2 =  1.173E-10

      iter #   6 total cpu time :   821.0 secs   av.it.:  10.1
      thresh= 1.083E-06 alpha_mix =  0.700 |ddv_scf|^2 =  4.319E-12

      iter #   7 total cpu time :   832.0 secs   av.it.:  10.0
      thresh= 2.078E-07 alpha_mix =  0.700 |ddv_scf|^2 =  8.607E-14

      iter #   8 total cpu time :   843.2 secs   av.it.:  10.2
      thresh= 2.934E-08 alpha_mix =  0.700 |ddv_scf|^2 =  6.020E-14

      iter #   9 total cpu time :   853.7 secs   av.it.:   9.4
      thresh= 2.454E-08 alpha_mix =  0.700 |ddv_scf|^2 =  6.476E-16

     End of self-consistent calculation

     Convergence has been achieved 


     Representation #  4 mode #   4

     Self-consistent Calculation

      iter #   1 total cpu time :   861.3 secs   av.it.:   6.0
      thresh= 1.000E-02 alpha_mix =  0.700 |ddv_scf|^2 =  2.147E-06

      iter #   2 total cpu time :   874.1 secs   av.it.:  10.3
      thresh= 1.465E-04 alpha_mix =  0.700 |ddv_scf|^2 =  2.628E-06

      iter #   3 total cpu time :   886.0 secs   av.it.:   9.6
      thresh= 1.621E-04 alpha_mix =  0.700 |ddv_scf|^2 =  9.427E-08

      iter #   4 total cpu time :   897.5 secs   av.it.:   9.7
      thresh= 3.070E-05 alpha_mix =  0.700 |ddv_scf|^2 =  1.315E-09

      iter #   5 total cpu time :   909.1 secs   av.it.:  10.0
      thresh= 3.626E-06 alpha_mix =  0.700 |ddv_scf|^2 =  8.752E-11

      iter #   6 total cpu time :   920.6 secs   av.it.:  10.1
      thresh= 9.355E-07 alpha_mix =  0.700 |ddv_scf|^2 =  2.414E-12

      iter #   7 total cpu time :   932.1 secs   av.it.:  10.1
      thresh= 1.554E-07 alpha_mix =  0.700 |ddv_scf|^2 =  1.432E-13

      iter #   8 total cpu time :   943.3 secs   av.it.:  10.0
      thresh= 3.784E-08 alpha_mix =  0.700 |ddv_scf|^2 =  2.437E-15

     End of self-consistent calculation

     Convergence has been achieved 


     Representation #  5 mode #   5

     Self-consistent Calculation

      iter #   1 total cpu time :   951.6 secs   av.it.:   6.6
      thresh= 1.000E-02 alpha_mix =  0.700 |ddv_scf|^2 =  2.439E-06

      iter #   2 total cpu time :   963.6 secs   av.it.:  10.1
      thresh= 1.562E-04 alpha_mix =  0.700 |ddv_scf|^2 =  2.877E-07

      iter #   3 total cpu time :   974.9 secs   av.it.:   9.9
      thresh= 5.364E-05 alpha_mix =  0.700 |ddv_scf|^2 =  1.235E-10

      iter #   4 total cpu time :   986.2 secs   av.it.:   9.9
      thresh= 1.111E-06 alpha_mix =  0.700 |ddv_scf|^2 =  3.903E-12

      iter #   5 total cpu time :   997.5 secs   av.it.:   9.9
      thresh= 1.976E-07 alpha_mix =  0.700 |ddv_scf|^2 =  1.491E-14

      iter #   6 total cpu time :  1009.5 secs   av.it.:  10.3
      thresh= 1.221E-08 alpha_mix =  0.700 |ddv_scf|^2 =  4.843E-17

     End of self-consistent calculation

     Convergence has been achieved 


     Representation #  6 mode #   6

     Self-consistent Calculation

      iter #   1 total cpu time :  1016.8 secs   av.it.:   5.7
      thresh= 1.000E-02 alpha_mix =  0.700 |ddv_scf|^2 =  4.297E-07

      iter #   2 total cpu time :  1028.0 secs   av.it.:  10.0
      thresh= 6.555E-05 alpha_mix =  0.700 |ddv_scf|^2 =  4.477E-08

      iter #   3 total cpu time :  1039.3 secs   av.it.:   9.9
      thresh= 2.116E-05 alpha_mix =  0.700 |ddv_scf|^2 =  8.356E-11

      iter #   4 total cpu time :  1050.2 secs   av.it.:   9.8
      thresh= 9.141E-07 alpha_mix =  0.700 |ddv_scf|^2 =  3.571E-12

      iter #   5 total cpu time :  1060.6 secs   av.it.:   9.1
      thresh= 1.890E-07 alpha_mix =  0.700 |ddv_scf|^2 =  2.469E-15

     End of self-consistent calculation

     Convergence has been achieved 

     Number of q in the star =   12
     List of q in the star:
          1   0.750000000  -0.250000000   0.750000000
          2  -0.750000000  -0.250000000  -0.750000000
          3   0.250000000  -0.750000000   0.750000000
          4  -0.750000000   0.250000000   0.750000000
          5   0.750000000   0.250000000  -0.750000000
          6   0.750000000   0.750000000  -0.250000000
          7  -0.750000000  -0.750000000  -0.250000000
          8  -0.750000000   0.750000000   0.250000000
          9  -0.250000000   0.750000000   0.750000000
         10   0.250000000   0.750000000  -0.750000000
         11  -0.250000000  -0.750000000  -0.750000000
         12   0.750000000  -0.750000000   0.250000000
     In addition there is the -q list: 
          1  -0.750000000   0.250000000  -0.750000000
          2   0.750000000   0.250000000   0.750000000
          3  -0.250000000   0.750000000  -0.750000000
          4   0.750000000  -0.250000000  -0.750000000
          5  -0.750000000  -0.250000000   0.750000000
          6  -0.750000000  -0.750000000   0.250000000
          7   0.750000000   0.750000000   0.250000000
          8   0.750000000  -0.750000000  -0.250000000
          9   0.250000000  -0.750000000  -0.750000000
         10  -0.250000000  -0.750000000   0.750000000
         11   0.250000000   0.750000000   0.750000000
         12  -0.750000000   0.750000000  -0.250000000

     Diagonalizing the dynamical matrix

     q = (    0.750000000  -0.250000000   0.750000000 ) 

 **************************************************************************
     freq (    1) =       2.363348 [THz] =      78.832813 [cm-1]
     freq (    2) =       3.224945 [THz] =     107.572579 [cm-1]
     freq (    3) =       5.445594 [THz] =     181.645462 [cm-1]
     freq (    4) =       7.126635 [THz] =     237.718970 [cm-1]
     freq (    5) =       7.692442 [THz] =     256.592253 [cm-1]
     freq (    6) =       8.065638 [THz] =     269.040718 [cm-1]
 **************************************************************************

     Mode symmetry, C_s (m)     point group:

     freq (  1 -  1) =         78.8  [cm-1]   --> A''                
     freq (  2 -  2) =        107.6  [cm-1]   --> A'                 
     freq (  3 -  3) =        181.6  [cm-1]   --> A'                 
     freq (  4 -  4) =        237.7  [cm-1]   --> A'                 
     freq (  5 -  5) =        256.6  [cm-1]   --> A''                
     freq (  6 -  6) =        269.0  [cm-1]   --> A'                 

     Calculation of q =    0.5000000   0.0000000   0.5000000

     G-vector sticks info
     --------------------
     sticks:   dense  smooth     PW     G-vecs:    dense   smooth      PW
     Sum         595     595    211                 9841     9841    2085


     Title: 
     phonons of GaAs                                                            


     bravais-lattice index     =            2
     lattice parameter (alat)  =      10.4749  a.u.
     unit-cell volume          =     287.3390 (a.u.)^3
     number of atoms/cell      =            2
     number of atomic types    =            2
     number of electrons       =         8.00
     number of Kohn-Sham states=            4
     kinetic-energy cutoff     =      40.0000  Ry
     charge density cutoff     =     160.0000  Ry
     Exchange-correlation      = PZ ( 1  1  0  0 0 0)

     celldm(1)=  10.474940  celldm(2)=   0.000000  celldm(3)=   0.000000
     celldm(4)=   0.000000  celldm(5)=   0.000000  celldm(6)=   0.000000

     crystal axes: (cart. coord. in units of alat)
               a(1) = (  -0.500000   0.000000   0.500000 )  
               a(2) = (   0.000000   0.500000   0.500000 )  
               a(3) = (  -0.500000   0.500000   0.000000 )  

     reciprocal axes: (cart. coord. in units 2 pi/alat)
               b(1) = ( -1.000000 -1.000000  1.000000 )  
               b(2) = (  1.000000  1.000000  1.000000 )  
               b(3) = ( -1.000000  1.000000 -1.000000 )  


     PseudoPot. # 1 for Ga read from file:
     ./\Ga.pz-bhs.UPF
     MD5 check sum: 98e586e88b8512aeea599638ab896ed5
     Pseudo is Norm-conserving, Zval =  3.0
     Generated by new atomic code, or converted to UPF format
     Using radial grid of  523 points,  2 beta functions with: 
                l(1) =   0
                l(2) =   1

     PseudoPot. # 2 for As read from file:
     ./\As.pz-bhs.UPF
     MD5 check sum: 13f7c76a6e1707474fd055f425e5c3c1
     Pseudo is Norm-conserving, Zval =  5.0
     Generated by new atomic code, or converted to UPF format
     Using radial grid of  525 points,  2 beta functions with: 
                l(1) =   0
                l(2) =   1

     atomic species   valence    mass     pseudopotential
        Ga             3.00    69.72300     Ga( 1.00)
        As             5.00    74.92160     As( 1.00)

     24 Sym. Ops. (no inversion) found



   Cartesian axes

     site n.     atom                  positions (alat units)
         1           Ga  tau(   1) = (   0.0000000   0.0000000   0.0000000  )
         2           As  tau(   2) = (  -0.2500000   0.2500000   0.2500000  )

     number of k points=   936

     Number of k-points >= 100: set verbosity='high' to print them.

     Dense  grid:     9841 G-vectors     FFT dimensions: (  30,  30,  30)

     Estimated max dynamical RAM per process >       4.63 MB

     The potential is recalculated from file :
     ./\_ph0\gaas.save\charge-density

     Starting wfcs are    8 atomic wfcs

     Band Structure Calculation
     Davidson diagonalization with overlap

     ethr =  1.25E-10,  avg # of iterations = 14.2

     total cpu time spent up to now is       92.8 secs

     End of band structure calculation

     Number of k-points >= 100: set verbosity='high' to print the bands.

     highest occupied level (ev):     5.0691

     Writing output data file gaas.save\

     phonons of GaAs                                                            

     bravais-lattice index     =            2
     lattice parameter (alat)  =      10.4749  a.u.
     unit-cell volume          =     287.3390 (a.u.)^3
     number of atoms/cell      =            2
     number of atomic types    =            2
     kinetic-energy cut-off    =      40.0000  Ry
     charge density cut-off    =     160.0000  Ry
     convergence threshold     =      1.0E-14
     beta                      =       0.7000
     number of iterations used =            4
     Exchange-correlation      = PZ ( 1  1  0  0 0 0)


     celldm(1)=   10.47494  celldm(2)=    0.00000  celldm(3)=    0.00000
     celldm(4)=    0.00000  celldm(5)=    0.00000  celldm(6)=    0.00000

     crystal axes: (cart. coord. in units of alat)
               a(1) = ( -0.5000  0.0000  0.5000 )  
               a(2) = (  0.0000  0.5000  0.5000 )  
               a(3) = ( -0.5000  0.5000  0.0000 )  

     reciprocal axes: (cart. coord. in units 2 pi/alat)
               b(1) = ( -1.0000 -1.0000  1.0000 )  
               b(2) = (  1.0000  1.0000  1.0000 )  
               b(3) = ( -1.0000  1.0000 -1.0000 )  


     Atoms inside the unit cell: 

     Cartesian axes

     site n.  atom      mass           positions (alat units)
        1     Ga  69.7230   tau(    1) = (    0.00000    0.00000    0.00000  )
        2     As  74.9216   tau(    2) = (   -0.25000    0.25000    0.25000  )

     Computing dynamical matrix for 
                    q = (   0.5000000   0.0000000   0.5000000 )

      2 Sym.Ops. (no q -> -q+G )


     G cutoff =  444.6961  (   9841 G-vectors)     FFT grid: ( 30, 30, 30)
     number of k points=   936

     PseudoPot. # 1 for Ga read from file:
     ./\Ga.pz-bhs.UPF
     MD5 check sum: 98e586e88b8512aeea599638ab896ed5
     Pseudo is Norm-conserving, Zval =  3.0
     Generated by new atomic code, or converted to UPF format
     Using radial grid of  523 points,  2 beta functions with: 
                l(1) =   0
                l(2) =   1

     PseudoPot. # 2 for As read from file:
     ./\As.pz-bhs.UPF
     MD5 check sum: 13f7c76a6e1707474fd055f425e5c3c1
     Pseudo is Norm-conserving, Zval =  5.0
     Generated by new atomic code, or converted to UPF format
     Using radial grid of  525 points,  2 beta functions with: 
                l(1) =   0
                l(2) =   1

     Mode symmetry, C_s (m)     point group:


     Atomic displacements:
     There are   6 irreducible representations

     Representation     1      1 modes -A'  To be done

     Representation     2      1 modes -A'  To be done

     Representation     3      1 modes -A'  To be done

     Representation     4      1 modes -A'  To be done

     Representation     5      1 modes -A''  To be done

     Representation     6      1 modes -A''  To be done



     Alpha used in Ewald sum =   1.7000
     PHONON       :      1h46m CPU  18m12.42s WALL



     Representation #  1 mode #   1

     Self-consistent Calculation

      iter #   1 total cpu time :  1100.8 secs   av.it.:   6.2
      thresh= 1.000E-02 alpha_mix =  0.700 |ddv_scf|^2 =  1.670E-05

      iter #   2 total cpu time :  1112.9 secs   av.it.:  10.1
      thresh= 4.087E-04 alpha_mix =  0.700 |ddv_scf|^2 =  6.139E-05

      iter #   3 total cpu time :  1123.3 secs   av.it.:   9.0
      thresh= 7.835E-04 alpha_mix =  0.700 |ddv_scf|^2 =  9.110E-08

      iter #   4 total cpu time :  1135.2 secs   av.it.:  10.0
      thresh= 3.018E-05 alpha_mix =  0.700 |ddv_scf|^2 =  1.151E-09

      iter #   5 total cpu time :  1147.0 secs   av.it.:  10.1
      thresh= 3.392E-06 alpha_mix =  0.700 |ddv_scf|^2 =  7.153E-11

      iter #   6 total cpu time :  1158.6 secs   av.it.:  10.1
      thresh= 8.458E-07 alpha_mix =  0.700 |ddv_scf|^2 =  1.799E-12

      iter #   7 total cpu time :  1171.0 secs   av.it.:  10.0
      thresh= 1.341E-07 alpha_mix =  0.700 |ddv_scf|^2 =  2.200E-13

      iter #   8 total cpu time :  1182.7 secs   av.it.:  10.1
      thresh= 4.691E-08 alpha_mix =  0.700 |ddv_scf|^2 =  5.712E-13

      iter #   9 total cpu time :  1193.3 secs   av.it.:   9.0
      thresh= 7.558E-08 alpha_mix =  0.700 |ddv_scf|^2 =  3.441E-16

     End of self-consistent calculation

     Convergence has been achieved 


     Representation #  2 mode #   2

     Self-consistent Calculation

      iter #   1 total cpu time :  1202.3 secs   av.it.:   7.0
      thresh= 1.000E-02 alpha_mix =  0.700 |ddv_scf|^2 =  3.072E-05

      iter #   2 total cpu time :  1214.0 secs   av.it.:  10.1
      thresh= 5.543E-04 alpha_mix =  0.700 |ddv_scf|^2 =  9.873E-05

      iter #   3 total cpu time :  1224.3 secs   av.it.:   9.0
      thresh= 9.936E-04 alpha_mix =  0.700 |ddv_scf|^2 =  7.677E-07

      iter #   4 total cpu time :  1235.8 secs   av.it.:   9.9
      thresh= 8.762E-05 alpha_mix =  0.700 |ddv_scf|^2 =  3.001E-09

      iter #   5 total cpu time :  1247.4 secs   av.it.:  10.2
      thresh= 5.478E-06 alpha_mix =  0.700 |ddv_scf|^2 =  1.748E-10

      iter #   6 total cpu time :  1258.7 secs   av.it.:  10.1
      thresh= 1.322E-06 alpha_mix =  0.700 |ddv_scf|^2 =  4.153E-12

      iter #   7 total cpu time :  1270.0 secs   av.it.:  10.0
      thresh= 2.038E-07 alpha_mix =  0.700 |ddv_scf|^2 =  3.997E-13

      iter #   8 total cpu time :  1281.3 secs   av.it.:  10.0
      thresh= 6.323E-08 alpha_mix =  0.700 |ddv_scf|^2 =  8.913E-14

      iter #   9 total cpu time :  1292.2 secs   av.it.:   9.2
      thresh= 2.985E-08 alpha_mix =  0.700 |ddv_scf|^2 =  9.437E-15

     End of self-consistent calculation

     Convergence has been achieved 


     Representation #  3 mode #   3

     Self-consistent Calculation

      iter #   1 total cpu time :  1301.2 secs   av.it.:   7.2
      thresh= 1.000E-02 alpha_mix =  0.700 |ddv_scf|^2 =  1.018E-04

      iter #   2 total cpu time :  1312.4 secs   av.it.:  10.1
      thresh= 1.009E-03 alpha_mix =  0.700 |ddv_scf|^2 =  3.922E-04

      iter #   3 total cpu time :  1322.7 secs   av.it.:   9.0
      thresh= 1.980E-03 alpha_mix =  0.700 |ddv_scf|^2 =  2.794E-07

      iter #   4 total cpu time :  1334.5 secs   av.it.:  10.1
      thresh= 5.286E-05 alpha_mix =  0.700 |ddv_scf|^2 =  3.170E-09

      iter #   5 total cpu time :  1345.7 secs   av.it.:  10.1
      thresh= 5.630E-06 alpha_mix =  0.700 |ddv_scf|^2 =  2.920E-10

      iter #   6 total cpu time :  1357.4 secs   av.it.:  10.1
      thresh= 1.709E-06 alpha_mix =  0.700 |ddv_scf|^2 =  3.678E-12

      iter #   7 total cpu time :  1368.4 secs   av.it.:   9.9
      thresh= 1.918E-07 alpha_mix =  0.700 |ddv_scf|^2 =  2.316E-14

      iter #   8 total cpu time :  1380.5 secs   av.it.:  10.2
      thresh= 1.522E-08 alpha_mix =  0.700 |ddv_scf|^2 =  5.636E-14

      iter #   9 total cpu time :  1391.3 secs   av.it.:   9.0
      thresh= 2.374E-08 alpha_mix =  0.700 |ddv_scf|^2 =  7.470E-16

     End of self-consistent calculation

     Convergence has been achieved 


     Representation #  4 mode #   4

     Self-consistent Calculation

      iter #   1 total cpu time :  1400.0 secs   av.it.:   6.2
      thresh= 1.000E-02 alpha_mix =  0.700 |ddv_scf|^2 =  1.616E-05

      iter #   2 total cpu time :  1412.3 secs   av.it.:  10.1
      thresh= 4.020E-04 alpha_mix =  0.700 |ddv_scf|^2 =  5.940E-05

      iter #   3 total cpu time :  1423.1 secs   av.it.:   9.0
      thresh= 7.707E-04 alpha_mix =  0.700 |ddv_scf|^2 =  8.955E-08

      iter #   4 total cpu time :  1434.6 secs   av.it.:  10.0
      thresh= 2.992E-05 alpha_mix =  0.700 |ddv_scf|^2 =  1.117E-09

      iter #   5 total cpu time :  1446.1 secs   av.it.:  10.1
      thresh= 3.342E-06 alpha_mix =  0.700 |ddv_scf|^2 =  7.169E-11

      iter #   6 total cpu time :  1457.2 secs   av.it.:  10.1
      thresh= 8.467E-07 alpha_mix =  0.700 |ddv_scf|^2 =  1.849E-12

      iter #   7 total cpu time :  1468.3 secs   av.it.:  10.0
      thresh= 1.360E-07 alpha_mix =  0.700 |ddv_scf|^2 =  2.699E-13

      iter #   8 total cpu time :  1480.9 secs   av.it.:  10.1
      thresh= 5.195E-08 alpha_mix =  0.700 |ddv_scf|^2 =  6.317E-13

      iter #   9 total cpu time :  1491.5 secs   av.it.:   9.0
      thresh= 7.948E-08 alpha_mix =  0.700 |ddv_scf|^2 =  2.424E-16

     End of self-consistent calculation

     Convergence has been achieved 


     Representation #  5 mode #   5

     Self-consistent Calculation

      iter #   1 total cpu time :  1500.0 secs   av.it.:   6.5
      thresh= 1.000E-02 alpha_mix =  0.700 |ddv_scf|^2 =  1.558E-06

      iter #   2 total cpu time :  1511.5 secs   av.it.:  10.1
      thresh= 1.248E-04 alpha_mix =  0.700 |ddv_scf|^2 =  1.067E-07

      iter #   3 total cpu time :  1522.8 secs   av.it.:   9.9
      thresh= 3.266E-05 alpha_mix =  0.700 |ddv_scf|^2 =  1.115E-10

      iter #   4 total cpu time :  1534.3 secs   av.it.:  10.0
      thresh= 1.056E-06 alpha_mix =  0.700 |ddv_scf|^2 =  3.143E-12

      iter #   5 total cpu time :  1545.7 secs   av.it.:   9.9
      thresh= 1.773E-07 alpha_mix =  0.700 |ddv_scf|^2 =  1.935E-14

      iter #   6 total cpu time :  1557.4 secs   av.it.:  10.2
      thresh= 1.391E-08 alpha_mix =  0.700 |ddv_scf|^2 =  1.124E-16

     End of self-consistent calculation

     Convergence has been achieved 


     Representation #  6 mode #   6

     Self-consistent Calculation

      iter #   1 total cpu time :  1564.8 secs   av.it.:   5.7
      thresh= 1.000E-02 alpha_mix =  0.700 |ddv_scf|^2 =  2.210E-07

      iter #   2 total cpu time :  1576.1 secs   av.it.:  10.0
      thresh= 4.701E-05 alpha_mix =  0.700 |ddv_scf|^2 =  1.094E-08

      iter #   3 total cpu time :  1587.5 secs   av.it.:  10.0
      thresh= 1.046E-05 alpha_mix =  0.700 |ddv_scf|^2 =  7.139E-11

      iter #   4 total cpu time :  1598.5 secs   av.it.:   9.9
      thresh= 8.449E-07 alpha_mix =  0.700 |ddv_scf|^2 =  3.929E-12

      iter #   5 total cpu time :  1609.6 secs   av.it.:   9.1
      thresh= 1.982E-07 alpha_mix =  0.700 |ddv_scf|^2 =  1.112E-15

     End of self-consistent calculation

     Convergence has been achieved 

     Number of q in the star =   12
     List of q in the star:
          1   0.500000000   0.000000000   0.500000000
          2  -0.500000000   0.000000000  -0.500000000
          3   0.000000000  -0.500000000   0.500000000
          4  -0.500000000   0.000000000   0.500000000
          5   0.500000000   0.000000000  -0.500000000
          6   0.500000000   0.500000000   0.000000000
          7  -0.500000000  -0.500000000   0.000000000
          8  -0.500000000   0.500000000   0.000000000
          9   0.000000000   0.500000000   0.500000000
         10   0.000000000   0.500000000  -0.500000000
         11   0.000000000  -0.500000000  -0.500000000
         12   0.500000000  -0.500000000   0.000000000

     Diagonalizing the dynamical matrix

     q = (    0.500000000   0.000000000   0.500000000 ) 

 **************************************************************************
     freq (    1) =       2.276079 [THz] =      75.921818 [cm-1]
     freq (    2) =       3.203277 [THz] =     106.849824 [cm-1]
     freq (    3) =       4.856724 [THz] =     162.002873 [cm-1]
     freq (    4) =       7.172146 [THz] =     239.237029 [cm-1]
     freq (    5) =       7.766959 [THz] =     259.077872 [cm-1]
     freq (    6) =       8.225888 [THz] =     274.386098 [cm-1]
 **************************************************************************

     Mode symmetry, C_s (m)     point group:

     freq (  1 -  1) =         75.9  [cm-1]   --> A''                
     freq (  2 -  2) =        106.8  [cm-1]   --> A'                 
     freq (  3 -  3) =        162.0  [cm-1]   --> A'                 
     freq (  4 -  4) =        239.2  [cm-1]   --> A'                 
     freq (  5 -  5) =        259.1  [cm-1]   --> A''                
     freq (  6 -  6) =        274.4  [cm-1]   --> A'                 

     Calculation of q =    0.0000000  -1.0000000   0.0000000

     G-vector sticks info
     --------------------
     sticks:   dense  smooth     PW     G-vecs:    dense   smooth      PW
     Sum         595     595    223                 9841     9841    2229


     Title: 
     phonons of GaAs                                                            


     bravais-lattice index     =            2
     lattice parameter (alat)  =      10.4749  a.u.
     unit-cell volume          =     287.3390 (a.u.)^3
     number of atoms/cell      =            2
     number of atomic types    =            2
     number of electrons       =         8.00
     number of Kohn-Sham states=            4
     kinetic-energy cutoff     =      40.0000  Ry
     charge density cutoff     =     160.0000  Ry
     Exchange-correlation      = PZ ( 1  1  0  0 0 0)

     celldm(1)=  10.474940  celldm(2)=   0.000000  celldm(3)=   0.000000
     celldm(4)=   0.000000  celldm(5)=   0.000000  celldm(6)=   0.000000

     crystal axes: (cart. coord. in units of alat)
               a(1) = (  -0.500000   0.000000   0.500000 )  
               a(2) = (   0.000000   0.500000   0.500000 )  
               a(3) = (  -0.500000   0.500000   0.000000 )  

[...]

      iter #   4 total cpu time :  1666.8 secs   av.it.:  10.7
      thresh= 4.918E-07 alpha_mix =  0.700 |ddv_scf|^2 =  5.752E-13

      iter #   5 total cpu time :  1670.3 secs   av.it.:  10.2
      thresh= 7.584E-08 alpha_mix =  0.700 |ddv_scf|^2 =  4.855E-16

     End of self-consistent calculation

     Convergence has been achieved 

     Number of q in the star =    3
     List of q in the star:
          1   0.000000000  -1.000000000   0.000000000
          2   0.000000000   0.000000000  -1.000000000
          3  -1.000000000   0.000000000   0.000000000

     Diagonalizing the dynamical matrix

     q = (    0.000000000  -1.000000000   0.000000000 ) 

 **************************************************************************
     freq (    1) =       2.424621 [THz] =      80.876651 [cm-1]
     freq (    2) =       2.424621 [THz] =      80.876651 [cm-1]
     freq (    3) =       6.735610 [THz] =     224.675753 [cm-1]
     freq (    4) =       7.324122 [THz] =     244.306426 [cm-1]
     freq (    5) =       7.629754 [THz] =     254.501189 [cm-1]
     freq (    6) =       7.629754 [THz] =     254.501189 [cm-1]
 **************************************************************************

     Mode symmetry, D_2d (-42m) point group:

     freq (  1 -  2) =         80.9  [cm-1]   --> E    X_5  W_3      
     freq (  3 -  3) =        224.7  [cm-1]   --> A_1  X_1  W_1      
     freq (  4 -  4) =        244.3  [cm-1]   --> B_2  X_3  W_2      
     freq (  5 -  6) =        254.5  [cm-1]   --> E    X_5  W_3      

     Calculation of q =   -0.5000000  -1.0000000   0.0000000

     G-vector sticks info
     --------------------
     sticks:   dense  smooth     PW     G-vecs:    dense   smooth      PW
     Sum         595     595    223                 9841     9841    2133


     Title: 
     phonons of GaAs                                                            


     bravais-lattice index     =            2
     lattice parameter (alat)  =      10.4749  a.u.
     unit-cell volume          =     287.3390 (a.u.)^3
     number of atoms/cell      =            2
     number of atomic types    =            2
     number of electrons       =         8.00
     number of Kohn-Sham states=            4
     kinetic-energy cutoff     =      40.0000  Ry
     charge density cutoff     =     160.0000  Ry
     Exchange-correlation      = PZ ( 1  1  0  0 0 0)

     celldm(1)=  10.474940  celldm(2)=   0.000000  celldm(3)=   0.000000
     celldm(4)=   0.000000  celldm(5)=   0.000000  celldm(6)=   0.000000

     crystal axes: (cart. coord. in units of alat)
               a(1) = (  -0.500000   0.000000   0.500000 )  
               a(2) = (   0.000000   0.500000   0.500000 )  
               a(3) = (  -0.500000   0.500000   0.000000 )  

     reciprocal axes: (cart. coord. in units 2 pi/alat)
               b(1) = ( -1.000000 -1.000000  1.000000 )  
               b(2) = (  1.000000  1.000000  1.000000 )  
               b(3) = ( -1.000000  1.000000 -1.000000 )  


     PseudoPot. # 1 for Ga read from file:
     ./\Ga.pz-bhs.UPF
     MD5 check sum: 98e586e88b8512aeea599638ab896ed5
     Pseudo is Norm-conserving, Zval =  3.0
     Generated by new atomic code, or converted to UPF format
     Using radial grid of  523 points,  2 beta functions with: 
                l(1) =   0
                l(2) =   1

     PseudoPot. # 2 for As read from file:
     ./\As.pz-bhs.UPF
     MD5 check sum: 13f7c76a6e1707474fd055f425e5c3c1
     Pseudo is Norm-conserving, Zval =  5.0
     Generated by new atomic code, or converted to UPF format
     Using radial grid of  525 points,  2 beta functions with: 
                l(1) =   0
                l(2) =   1

     atomic species   valence    mass     pseudopotential
        Ga             3.00    69.72300     Ga( 1.00)
        As             5.00    74.92160     As( 1.00)

     24 Sym. Ops. (no inversion) found



   Cartesian axes

     site n.     atom                  positions (alat units)
         1           Ga  tau(   1) = (   0.0000000   0.0000000   0.0000000  )
         2           As  tau(   2) = (  -0.2500000   0.2500000   0.2500000  )

     number of k points=   432

     Number of k-points >= 100: set verbosity='high' to print them.

     Dense  grid:     9841 G-vectors     FFT dimensions: (  30,  30,  30)

     Estimated max dynamical RAM per process >       4.63 MB

     The potential is recalculated from file :
     ./\_ph0\gaas.save\charge-density

     Starting wfcs are    8 atomic wfcs

     Band Structure Calculation
     Davidson diagonalization with overlap

     ethr =  1.25E-10,  avg # of iterations = 14.1

     total cpu time spent up to now is      112.5 secs

     End of band structure calculation

     Number of k-points >= 100: set verbosity='high' to print the bands.

     highest occupied level (ev):     5.0691

     Writing output data file gaas.save\

     phonons of GaAs                                                            

     bravais-lattice index     =            2
     lattice parameter (alat)  =      10.4749  a.u.
     unit-cell volume          =     287.3390 (a.u.)^3
     number of atoms/cell      =            2
     number of atomic types    =            2
     kinetic-energy cut-off    =      40.0000  Ry
     charge density cut-off    =     160.0000  Ry
     convergence threshold     =      1.0E-14
     beta                      =       0.7000
     number of iterations used =            4
     Exchange-correlation      = PZ ( 1  1  0  0 0 0)


     celldm(1)=   10.47494  celldm(2)=    0.00000  celldm(3)=    0.00000
     celldm(4)=    0.00000  celldm(5)=    0.00000  celldm(6)=    0.00000

     crystal axes: (cart. coord. in units of alat)
               a(1) = ( -0.5000  0.0000  0.5000 )  
               a(2) = (  0.0000  0.5000  0.5000 )  
               a(3) = ( -0.5000  0.5000  0.0000 )  

     reciprocal axes: (cart. coord. in units 2 pi/alat)
               b(1) = ( -1.0000 -1.0000  1.0000 )  
               b(2) = (  1.0000  1.0000  1.0000 )  
               b(3) = ( -1.0000  1.0000 -1.0000 )  


     Atoms inside the unit cell: 

     Cartesian axes

     site n.  atom      mass           positions (alat units)
        1     Ga  69.7230   tau(    1) = (    0.00000    0.00000    0.00000  )
        2     As  74.9216   tau(    2) = (   -0.25000    0.25000    0.25000  )

     Computing dynamical matrix for 
                    q = (  -0.5000000  -1.0000000   0.0000000 )

      4 Sym.Ops. (no q -> -q+G )


     G cutoff =  444.6961  (   9841 G-vectors)     FFT grid: ( 30, 30, 30)
     number of k points=   432

     PseudoPot. # 1 for Ga read from file:
     ./\Ga.pz-bhs.UPF
     MD5 check sum: 98e586e88b8512aeea599638ab896ed5
     Pseudo is Norm-conserving, Zval =  3.0
     Generated by new atomic code, or converted to UPF format
     Using radial grid of  523 points,  2 beta functions with: 
                l(1) =   0
                l(2) =   1

     PseudoPot. # 2 for As read from file:
     ./\As.pz-bhs.UPF
     MD5 check sum: 13f7c76a6e1707474fd055f425e5c3c1
     Pseudo is Norm-conserving, Zval =  5.0
     Generated by new atomic code, or converted to UPF format
     Using radial grid of  525 points,  2 beta functions with: 
                l(1) =   0
                l(2) =   1

     Mode symmetry, S_4 (-4)    point group:


     Atomic displacements:
     There are   6 irreducible representations

     Representation     1      1 modes -A    W_1  To be done

     Representation     2      1 modes -B    W_3  To be done

     Representation     3      1 modes -B    W_3  To be done

     Representation     4      1 modes -E    W_4  To be done

     Representation     5      1 modes -E*   W_2  To be done

     Representation     6      1 modes -E*   W_2  To be done



     Alpha used in Ewald sum =   1.7000
     PHONON       :      2h43m CPU  28m 6.42s WALL



     Representation #  1 mode #   1

     Self-consistent Calculation

      iter #   1 total cpu time :  1690.8 secs   av.it.:   7.1
      thresh= 1.000E-02 alpha_mix =  0.700 |ddv_scf|^2 =  1.719E-05

      iter #   2 total cpu time :  1696.4 secs   av.it.:  10.3
      thresh= 4.146E-04 alpha_mix =  0.700 |ddv_scf|^2 =  1.526E-05

      iter #   3 total cpu time :  1701.7 secs   av.it.:   9.7
      thresh= 3.907E-04 alpha_mix =  0.700 |ddv_scf|^2 =  2.352E-10

      iter #   4 total cpu time :  1707.2 secs   av.it.:  10.3
      thresh= 1.534E-06 alpha_mix =  0.700 |ddv_scf|^2 =  2.646E-11

      iter #   5 total cpu time :  1712.6 secs   av.it.:  10.1
      thresh= 5.144E-07 alpha_mix =  0.700 |ddv_scf|^2 =  3.925E-14

      iter #   6 total cpu time :  1717.7 secs   av.it.:   9.7
      thresh= 1.981E-08 alpha_mix =  0.700 |ddv_scf|^2 =  1.593E-15

     End of self-consistent calculation

     Convergence has been achieved 


     Representation #  2 mode #   2

     Self-consistent Calculation

      iter #   1 total cpu time :  1722.0 secs   av.it.:   7.1
      thresh= 1.000E-02 alpha_mix =  0.700 |ddv_scf|^2 =  1.211E-05

      iter #   2 total cpu time :  1727.8 secs   av.it.:  10.4
      thresh= 3.479E-04 alpha_mix =  0.700 |ddv_scf|^2 =  5.858E-06

      iter #   3 total cpu time :  1733.1 secs   av.it.:  10.0
      thresh= 2.420E-04 alpha_mix =  0.700 |ddv_scf|^2 =  2.005E-10

      iter #   4 total cpu time :  1738.5 secs   av.it.:  10.0
      thresh= 1.416E-06 alpha_mix =  0.700 |ddv_scf|^2 =  1.350E-11

      iter #   5 total cpu time :  1743.8 secs   av.it.:  10.0
      thresh= 3.674E-07 alpha_mix =  0.700 |ddv_scf|^2 =  2.875E-14

      iter #   6 total cpu time :  1749.4 secs   av.it.:  10.6
      thresh= 1.695E-08 alpha_mix =  0.700 |ddv_scf|^2 =  1.510E-16

     End of self-consistent calculation

     Convergence has been achieved 


     Representation #  3 mode #   3

     Self-consistent Calculation

      iter #   1 total cpu time :  1753.0 secs   av.it.:   6.0
      thresh= 1.000E-02 alpha_mix =  0.700 |ddv_scf|^2 =  1.713E-06

      iter #   2 total cpu time :  1758.5 secs   av.it.:  10.4
      thresh= 1.309E-04 alpha_mix =  0.700 |ddv_scf|^2 =  8.214E-07

      iter #   3 total cpu time :  1763.9 secs   av.it.:  10.0
      thresh= 9.063E-05 alpha_mix =  0.700 |ddv_scf|^2 =  1.105E-10

      iter #   4 total cpu time :  1769.1 secs   av.it.:   9.8
      thresh= 1.051E-06 alpha_mix =  0.700 |ddv_scf|^2 =  7.792E-12

      iter #   5 total cpu time :  1774.5 secs   av.it.:   9.5
      thresh= 2.791E-07 alpha_mix =  0.700 |ddv_scf|^2 =  1.549E-14

      iter #   6 total cpu time :  1779.8 secs   av.it.:  10.1
      thresh= 1.245E-08 alpha_mix =  0.700 |ddv_scf|^2 =  1.157E-16

     End of self-consistent calculation

     Convergence has been achieved 


     Representation #  4 mode #   4

     Self-consistent Calculation

      iter #   1 total cpu time :  1783.4 secs   av.it.:   6.2
      thresh= 1.000E-02 alpha_mix =  0.700 |ddv_scf|^2 =  3.590E-06

      iter #   2 total cpu time :  1789.5 secs   av.it.:  10.4
      thresh= 1.895E-04 alpha_mix =  0.700 |ddv_scf|^2 =  3.613E-06

      iter #   3 total cpu time :  1794.8 secs   av.it.:   9.9
      thresh= 1.901E-04 alpha_mix =  0.700 |ddv_scf|^2 =  3.739E-09

      iter #   4 total cpu time :  1799.9 secs   av.it.:   9.9
      thresh= 6.115E-06 alpha_mix =  0.700 |ddv_scf|^2 =  1.135E-11

      iter #   5 total cpu time :  1804.8 secs   av.it.:   9.5
      thresh= 3.368E-07 alpha_mix =  0.700 |ddv_scf|^2 =  5.626E-14

      iter #   6 total cpu time :  1809.8 secs   av.it.:   9.9
      thresh= 2.372E-08 alpha_mix =  0.700 |ddv_scf|^2 =  4.399E-16

     End of self-consistent calculation

     Convergence has been achieved 


     Representation #  5 mode #   5

     Self-consistent Calculation

      iter #   1 total cpu time :  1813.8 secs   av.it.:   6.9
      thresh= 1.000E-02 alpha_mix =  0.700 |ddv_scf|^2 =  6.838E-06

      iter #   2 total cpu time :  1819.0 secs   av.it.:  10.4
      thresh= 2.615E-04 alpha_mix =  0.700 |ddv_scf|^2 =  2.641E-06

      iter #   3 total cpu time :  1824.1 secs   av.it.:  10.0
      thresh= 1.625E-04 alpha_mix =  0.700 |ddv_scf|^2 =  2.554E-10

      iter #   4 total cpu time :  1829.3 secs   av.it.:  10.2
      thresh= 1.598E-06 alpha_mix =  0.700 |ddv_scf|^2 =  1.877E-11

      iter #   5 total cpu time :  1834.5 secs   av.it.:  10.1
      thresh= 4.333E-07 alpha_mix =  0.700 |ddv_scf|^2 =  3.202E-14

      iter #   6 total cpu time :  1839.8 secs   av.it.:  10.4
      thresh= 1.789E-08 alpha_mix =  0.700 |ddv_scf|^2 =  1.962E-16

     End of self-consistent calculation

     Convergence has been achieved 


     Representation #  6 mode #   6

     Self-consistent Calculation

      iter #   1 total cpu time :  1843.4 secs   av.it.:   6.1
      thresh= 1.000E-02 alpha_mix =  0.700 |ddv_scf|^2 =  2.396E-06

      iter #   2 total cpu time :  1848.7 secs   av.it.:  10.4
      thresh= 1.548E-04 alpha_mix =  0.700 |ddv_scf|^2 =  8.462E-07

      iter #   3 total cpu time :  1853.9 secs   av.it.:  10.0
      thresh= 9.199E-05 alpha_mix =  0.700 |ddv_scf|^2 =  1.612E-10

      iter #   4 total cpu time :  1858.9 secs   av.it.:  10.0
      thresh= 1.270E-06 alpha_mix =  0.700 |ddv_scf|^2 =  3.774E-12

      iter #   5 total cpu time :  1863.8 secs   av.it.:   9.5
      thresh= 1.943E-07 alpha_mix =  0.700 |ddv_scf|^2 =  1.433E-14

      iter #   6 total cpu time :  1869.1 secs   av.it.:  10.2
      thresh= 1.197E-08 alpha_mix =  0.700 |ddv_scf|^2 =  4.587E-17

     End of self-consistent calculation

     Convergence has been achieved 

     Number of q in the star =    6
     List of q in the star:
          1  -0.500000000  -1.000000000   0.000000000
          2   0.000000000   1.000000000  -0.500000000
          3   0.000000000   1.000000000   0.500000000
          4   0.500000000   1.000000000   0.000000000
          5   0.000000000  -0.500000000  -1.000000000
          6   0.000000000   0.500000000  -1.000000000

     Diagonalizing the dynamical matrix

     q = (   -0.500000000  -1.000000000   0.000000000 ) 

 **************************************************************************
     freq (    1) =       3.096007 [THz] =     103.271676 [cm-1]
     freq (    2) =       3.463326 [THz] =     115.524119 [cm-1]
     freq (    3) =       5.957610 [THz] =     198.724477 [cm-1]
     freq (    4) =       6.233057 [THz] =     207.912410 [cm-1]
     freq (    5) =       7.655573 [THz] =     255.362438 [cm-1]
     freq (    6) =       8.023510 [THz] =     267.635488 [cm-1]
 **************************************************************************

     Mode symmetry, S_4 (-4)    point group:

     freq (  1 -  1) =        103.3  [cm-1]   --> B    W_3           
     freq (  2 -  2) =        115.5  [cm-1]   --> E*   W_2           
     freq (  3 -  3) =        198.7  [cm-1]   --> A    W_1           
     freq (  4 -  4) =        207.9  [cm-1]   --> E    W_4           
     freq (  5 -  5) =        255.4  [cm-1]   --> E*   W_2           
     freq (  6 -  6) =        267.6  [cm-1]   --> B    W_3           

     init_run     :      8.70s CPU      1.73s WALL (       7 calls)
     electrons    :    646.20s CPU    110.35s WALL (       7 calls)

     Called by init_run:
     wfcinit      :      0.08s CPU      0.00s WALL (       7 calls)
     potinit      :      0.11s CPU      0.01s WALL (       7 calls)
     hinit0       :      8.08s CPU      1.62s WALL (       7 calls)

     Called by electrons:
     c_bands      :    646.20s CPU    110.35s WALL (       7 calls)
     v_of_rho     :      0.11s CPU      0.01s WALL (       8 calls)

     Called by c_bands:
     init_us_2    :    114.55s CPU     14.74s WALL (   87970 calls)
     cegterg      :    551.92s CPU     94.99s WALL (    3520 calls)

     Called by sum_band:

     Called by *egterg:
     h_psi        :   8089.08s CPU   1383.80s WALL (  872136 calls)
     g_psi        :     16.25s CPU      2.82s WALL (   49089 calls)
     cdiaghg      :     21.44s CPU      3.69s WALL (   52569 calls)

     Called by h_psi:
     h_psi:pot    :   7822.25s CPU   1333.92s WALL (  872136 calls)
     h_psi:calbec :    131.47s CPU     22.75s WALL (  872136 calls)
     vloc_psi     :   7579.16s CPU   1293.64s WALL (  872136 calls)
     add_vuspsi   :     94.66s CPU     15.41s WALL (  872136 calls)

     General routines
     calbec       :    224.83s CPU     38.84s WALL ( 1748379 calls)
     fft          :      0.66s CPU      0.09s WALL (    1005 calls)
     ffts         :      5.92s CPU      1.01s WALL (   11004 calls)
     fftw         :   4007.44s CPU    671.26s WALL ( 7518612 calls)
     davcio       :     74.25s CPU     14.66s WALL (  379664 calls)

     Parallel routines

     PHONON       :      3h 1m CPU  31m 9.17s WALL

     INITIALIZATION: 
     phq_setup    :      0.56s CPU      0.11s WALL (       8 calls)
     phq_init     :     25.62s CPU      6.14s WALL (       8 calls)

     phq_init     :     25.62s CPU      6.14s WALL (       8 calls)
     init_vloc    :      0.44s CPU      0.07s WALL (       8 calls)
     init_us_1    :      3.50s CPU      0.59s WALL (       8 calls)

     DYNAMICAL MATRIX:
     dynmat0      :      8.19s CPU      1.42s WALL (       8 calls)
     phqscf       :  10133.55s CPU   1738.23s WALL (       8 calls)
     dynmatrix    :      0.25s CPU      0.03s WALL (       8 calls)

     phqscf       :  10133.55s CPU   1738.23s WALL (       8 calls)
     solve_linter :  10107.19s CPU   1734.07s WALL (      38 calls)
     drhodv       :     25.38s CPU      3.95s WALL (      38 calls)

     dynmat0      :      8.19s CPU      1.42s WALL (       8 calls)
     dynmat_us    :      7.77s CPU      1.33s WALL (       8 calls)
     d2ionq       :      0.20s CPU      0.07s WALL (       8 calls)

     dynmat_us    :      7.77s CPU      1.33s WALL (       8 calls)

     phqscf       :  10133.55s CPU   1738.23s WALL (       8 calls)
     solve_linter :  10107.19s CPU   1734.07s WALL (      38 calls)

     solve_linter :  10107.19s CPU   1734.07s WALL (      38 calls)
     dvqpsi_us    :     97.67s CPU     16.88s WALL (   10776 calls)
     ortho        :     43.83s CPU      7.72s WALL (   75386 calls)
     cgsolve      :   8772.83s CPU   1508.78s WALL (   75386 calls)
     incdrhoscf   :    578.41s CPU     98.88s WALL (   75302 calls)
     vpsifft      :    469.62s CPU     78.57s WALL (   64190 calls)
     dv_of_drho   :      1.75s CPU      0.18s WALL (     324 calls)
     mix_pot      :      4.17s CPU      0.80s WALL (     262 calls)
     psymdvscf    :     14.33s CPU      2.73s WALL (     256 calls)

     dvqpsi_us    :     97.67s CPU     16.88s WALL (   10776 calls)
     dvqpsi_us_on :      7.81s CPU      1.18s WALL (   10776 calls)

     cgsolve      :   8772.83s CPU   1508.78s WALL (   75386 calls)
     ch_psi       :   8538.91s CPU   1468.89s WALL (  816047 calls)

     ch_psi       :   8538.91s CPU   1468.89s WALL (  816047 calls)
     h_psi        :   8089.08s CPU   1383.80s WALL (  872136 calls)
     last         :    655.36s CPU    117.14s WALL (  816047 calls)

     h_psi        :   8089.08s CPU   1383.80s WALL (  872136 calls)
     add_vuspsi   :     94.66s CPU     15.41s WALL (  872136 calls)

     incdrhoscf   :    578.41s CPU     98.88s WALL (   75302 calls)


      General routines
     calbec       :    224.83s CPU     38.84s WALL ( 1748379 calls)
     fft          :      0.66s CPU      0.09s WALL (    1005 calls)
     ffts         :      5.92s CPU      1.01s WALL (   11004 calls)
     fftw         :   4007.44s CPU    671.26s WALL ( 7518612 calls)
     davcio       :     74.25s CPU     14.66s WALL (  379664 calls)
     write_rec    :      4.58s CPU      1.01s WALL (     300 calls)


     PHONON       :      3h 1m CPU  31m 9.17s WALL


   This run was terminated on:  15:28:40  31Jul2021            

=------------------------------------------------------------------------------=
   JOB DONE.
=------------------------------------------------------------------------------=
