
     Program BANDS v.6.4.1 starts on 31Jul2021 at 23:46:36 

     This program is part of the open-source Quantum ESPRESSO suite
     for quantum simulation of materials; please cite
         "P. Giannozzi et al., J. Phys.:Condens. Matter 21 395502 (2009);
         "P. Giannozzi et al., J. Phys.:Condens. Matter 29 465901 (2017);
          URL http://www.quantum-espresso.org", 
     in publications or presentations arising from this work. More details at
     http://www.quantum-espresso.org/quote

     Parallel version (MPI & OpenMP), running on      12 processor cores
     Number of MPI processes:                 1
     Threads/MPI process:                    12

     MPI processes distributed on     1 nodes

     Reading data from directory:
     ./\gaas.save\

     IMPORTANT: XC functional enforced from input :
     Exchange-correlation      = PZ ( 1  1  0  0 0 0)
     Any further DFT definition will be discarded
     Please, verify this is what you really want


     G-vector sticks info
     --------------------
     sticks:   dense  smooth     PW     G-vecs:    dense   smooth      PW
     Sum         595     595    187                 9841     9841    1639

     high-symmetry point:  0.5000 0.5000 0.5000   x coordinate   0.0000
     high-symmetry point:  0.0000 0.0000 0.0000   x coordinate   0.8660
     high-symmetry point:  1.0000 0.0000 0.0000   x coordinate   1.8660

     Plottable bands (eV) written to file bands.gnu
     Bands written to file bands

 **************************************************************************

                    xk=(   0.50000,   0.50000,   0.50000  )

     point group C_3v (3m)  
     there are  3 classes
     the character table:

       E     2C3   3s_v 
A_1    1.00  1.00  1.00
A_2    1.00  1.00 -1.00
E      2.00 -1.00  0.00

     the symmetry operations in each class and the name of the first element:

     E        1
                                                                 
     2C3      2    3
                                                                 
     3s_v     4    5    6
                                                                 

     Band symmetry, C_3v (3m)   point group:

     e(  1 -  1) =     -6.01514  eV     1   --> A_1  L_1       
     e(  2 -  2) =     -1.66022  eV     1   --> A_1  L_1       
     e(  3 -  4) =      4.04546  eV     2   --> E    L_3       
     e(  5 -  5) =      6.58846  eV     1   --> A_1  L_1       
     e(  6 -  7) =      9.87202  eV     2   --> E    L_3       
     e(  8 -  8) =     13.14924  eV     1   --> A_1  L_1       

 **************************************************************************

 **************************************************************************

                    xk=(   0.47500,   0.47500,   0.47500  )

     Band symmetry, C_3v (3m)   point group:

     e(  1 -  1) =     -6.03274  eV     1   --> A_1  L_1       
     e(  2 -  2) =     -1.62587  eV     1   --> A_1  L_1       
     e(  3 -  4) =      4.05035  eV     2   --> E    L_3       
     e(  5 -  5) =      6.59434  eV     1   --> A_1  L_1       
     e(  6 -  7) =      9.87610  eV     2   --> E    L_3       
     e(  8 -  8) =     13.15229  eV     1   --> A_1  L_1       

 **************************************************************************

 **************************************************************************

                    xk=(   0.45000,   0.45000,   0.45000  )

     Band symmetry, C_3v (3m)   point group:

     e(  1 -  1) =     -6.08376  eV     1   --> A_1  L_1       
     e(  2 -  2) =     -1.52465  eV     1   --> A_1  L_1       
     e(  3 -  4) =      4.06500  eV     2   --> E    L_3       
     e(  5 -  5) =      6.61193  eV     1   --> A_1  L_1       
     e(  6 -  7) =      9.88797  eV     2   --> E    L_3       
     e(  8 -  8) =     13.15965  eV     1   --> A_1  L_1       

 **************************************************************************

 **************************************************************************

                    xk=(   0.42500,   0.42500,   0.42500  )

     Band symmetry, C_3v (3m)   point group:

     e(  1 -  1) =     -6.16365  eV     1   --> A_1  L_1       
     e(  2 -  2) =     -1.36155  eV     1   --> A_1  L_1       
     e(  3 -  4) =      4.08928  eV     2   --> E    L_3       
     e(  5 -  5) =      6.64101  eV     1   --> A_1  L_1       
     e(  6 -  7) =      9.90640  eV     2   --> E    L_3       
     e(  8 -  8) =     13.16516  eV     1   --> A_1  L_1       

 **************************************************************************

 **************************************************************************

                    xk=(   0.40000,   0.40000,   0.40000  )

     Band symmetry, C_3v (3m)   point group:

     e(  1 -  1) =     -6.26577  eV     1   --> A_1  L_1       
     e(  2 -  2) =     -1.14329  eV     1   --> A_1  L_1       
     e(  3 -  4) =      4.12306  eV     2   --> E    L_3       
     e(  5 -  5) =      6.68144  eV     1   --> A_1  L_1       
     e(  6 -  7) =      9.92931  eV     2   --> E    L_3       
     e(  8 -  8) =     13.15581  eV     1   --> A_1  L_1       

 **************************************************************************

 **************************************************************************

                    xk=(   0.37500,   0.37500,   0.37500  )

     Band symmetry, C_3v (3m)   point group:

     e(  1 -  1) =     -6.38341  eV     1   --> A_1  L_1       
     e(  2 -  2) =     -0.87703  eV     1   --> A_1  L_1       
     e(  3 -  4) =      4.16610  eV     2   --> E    L_3       
     e(  5 -  5) =      6.73290  eV     1   --> A_1  L_1       
     e(  6 -  7) =      9.95368  eV     2   --> E    L_3       
     e(  8 -  8) =     13.10763  eV     1   --> A_1  L_1       

 **************************************************************************

 **************************************************************************

                    xk=(   0.35000,   0.35000,   0.35000  )

     Band symmetry, C_3v (3m)   point group:

     e(  1 -  1) =     -6.51009  eV     1   --> A_1  L_1       
     e(  2 -  2) =     -0.56952  eV     1   --> A_1  L_1       
     e(  3 -  4) =      4.21807  eV     2   --> E    L_3       
     e(  5 -  5) =      6.79504  eV     1   --> A_1  L_1       
     e(  6 -  7) =      9.97548  eV     2   --> E    L_3       
     e(  8 -  8) =     12.98603  eV     1   --> A_1  L_1       

 **************************************************************************

 **************************************************************************

                    xk=(   0.32500,   0.32500,   0.32500  )

     Band symmetry, C_3v (3m)   point group:

     e(  1 -  1) =     -6.64078  eV     1   --> A_1  L_1       
     e(  2 -  2) =     -0.22660  eV     1   --> A_1  L_1       
     e(  3 -  4) =      4.27853  eV     2   --> E    L_3       
     e(  5 -  5) =      6.86705  eV     1   --> A_1  L_1       
     e(  6 -  7) =      9.98975  eV     2   --> E    L_3       
     e(  8 -  8) =     12.76477  eV     1   --> A_1  L_1       

 **************************************************************************

 **************************************************************************

                    xk=(   0.30000,   0.30000,   0.30000  )

     Band symmetry, C_3v (3m)   point group:

     e(  1 -  1) =     -6.77118  eV     1   --> A_1  L_1       
     e(  2 -  2) =      0.14678  eV     1   --> A_1  L_1       
     e(  3 -  4) =      4.34687  eV     2   --> E    L_3       
     e(  5 -  5) =      6.94799  eV     1   --> A_1  L_1       
     e(  6 -  7) =      9.99086  eV     2   --> E    L_3       
     e(  8 -  8) =     12.45180  eV     1   --> A_1  L_1       

 **************************************************************************

 **************************************************************************

                    xk=(   0.27500,   0.27500,   0.27500  )

     Band symmetry, C_3v (3m)   point group:

     e(  1 -  1) =     -6.89814  eV     1   --> A_1  L_1       
     e(  2 -  2) =      0.54645  eV     1   --> A_1  L_1       
     e(  3 -  4) =      4.42233  eV     2   --> E    L_3       
     e(  5 -  5) =      7.03619  eV     1   --> A_1  L_1       
     e(  6 -  7) =      9.97329  eV     2   --> E    L_3       
     e(  8 -  8) =     12.07774  eV     1   --> A_1  L_1       

 **************************************************************************

 **************************************************************************

                    xk=(   0.25000,   0.25000,   0.25000  )

     Band symmetry, C_3v (3m)   point group:

     e(  1 -  1) =     -7.01910  eV     1   --> A_1  L_1       
     e(  2 -  2) =      0.96862  eV     1   --> A_1  L_1       
     e(  3 -  4) =      4.50391  eV     2   --> E    L_3       
     e(  5 -  5) =      7.12944  eV     1   --> A_1  L_1       
     e(  6 -  7) =      9.93262  eV     2   --> E    L_3       
     e(  8 -  8) =     11.67046  eV     1   --> A_1  L_1       

 **************************************************************************

 **************************************************************************

                    xk=(   0.22500,   0.22500,   0.22500  )

     Band symmetry, C_3v (3m)   point group:

     e(  1 -  1) =     -7.13231  eV     1   --> A_1  L_1       
     e(  2 -  2) =      1.40994  eV     1   --> A_1  L_1       
     e(  3 -  4) =      4.59034  eV     2   --> E    L_3       
     e(  5 -  5) =      7.22404  eV     1   --> A_1  L_1       
     e(  6 -  7) =      9.86691  eV     2   --> E    L_3       
     e(  8 -  8) =     11.24836  eV     1   --> A_1  L_1       

 **************************************************************************

 **************************************************************************

                    xk=(   0.20000,   0.20000,   0.20000  )

     Band symmetry, C_3v (3m)   point group:

     e(  1 -  1) =     -7.23622  eV     1   --> A_1  L_1       
     e(  2 -  2) =      1.86725  eV     1   --> A_1  L_1       
     e(  3 -  4) =      4.68000  eV     2   --> E    L_3       
     e(  5 -  5) =      7.31450  eV     1   --> A_1  L_1       
     e(  6 -  7) =      9.77756  eV     2   --> E    L_3       
     e(  8 -  8) =     10.82436  eV     1   --> A_1  L_1       

 **************************************************************************

 **************************************************************************

                    xk=(   0.17500,   0.17500,   0.17500  )

     Band symmetry, C_3v (3m)   point group:

     e(  1 -  1) =     -7.32962  eV     1   --> A_1  L_1       
     e(  2 -  2) =      2.33731  eV     1   --> A_1  L_1       
     e(  3 -  4) =      4.77089  eV     2   --> E    L_3       
     e(  5 -  5) =      7.39220  eV     1   --> A_1  L_1       
     e(  6 -  7) =      9.66939  eV     2   --> E    L_3       
     e(  8 -  8) =     10.41030  eV     1   --> A_1  L_1       

 **************************************************************************

 **************************************************************************

                    xk=(   0.15000,   0.15000,   0.15000  )

     Band symmetry, C_3v (3m)   point group:

     e(  1 -  1) =     -7.41202  eV     1   --> A_1  L_1       
     e(  2 -  2) =      2.81612  eV     1   --> A_1  L_1       
     e(  3 -  4) =      4.86049  eV     2   --> E    L_3       
     e(  5 -  5) =      7.44262  eV     1   --> A_1  L_1       
     e(  6 -  7) =      9.54977  eV     2   --> E    L_3       
     e(  8 -  8) =     10.02059  eV     1   --> A_1  L_1       

 **************************************************************************

 **************************************************************************

                    xk=(   0.12500,   0.12500,   0.12500  )

     Band symmetry, C_3v (3m)   point group:

     e(  1 -  1) =     -7.48248  eV     1   --> A_1  L_1       
     e(  2 -  2) =      3.29923  eV     1   --> A_1  L_1       
     e(  3 -  4) =      4.94585  eV     2   --> E    L_3       
     e(  5 -  5) =      7.44457  eV     1   --> A_1  L_1       
     e(  6 -  7) =      9.42750  eV     2   --> E    L_3       
     e(  8 -  8) =      9.67606  eV     1   --> A_1  L_1       

 **************************************************************************

 **************************************************************************

                    xk=(   0.10000,   0.10000,   0.10000  )

     Band symmetry, C_3v (3m)   point group:

     e(  1 -  1) =     -7.54067  eV     1   --> A_1  L_1       
     e(  2 -  2) =      3.78006  eV     1   --> A_1  L_1       
     e(  3 -  4) =      5.02348  eV     2   --> E    L_3       
     e(  5 -  5) =      7.37119  eV     1   --> A_1  L_1       
     e(  6 -  7) =      9.31166  eV     2   --> E    L_3       
     e(  8 -  8) =      9.40274  eV     1   --> A_1  L_1       

 **************************************************************************

 **************************************************************************

                    xk=(   0.07500,   0.07500,   0.07500  )

     Band symmetry, C_3v (3m)   point group:

     e(  1 -  1) =     -7.58624  eV     1   --> A_1  L_1       
     e(  2 -  2) =      4.24796  eV     1   --> A_1  L_1       
     e(  3 -  4) =      5.08959  eV     2   --> E    L_3       
     e(  5 -  5) =      7.20555  eV     1   --> A_1  L_1       
     e(  6 -  7) =      9.21090  eV     2   --> E    L_3       
     e(  8 -  8) =      9.21948  eV     1   --> A_1  L_1       

 **************************************************************************

 **************************************************************************

                    xk=(   0.05000,   0.05000,   0.05000  )

     Band symmetry, C_3v (3m)   point group:

     e(  1 -  1) =     -7.61895  eV     1   --> A_1  L_1       
     e(  2 -  2) =      4.68226  eV     1   --> A_1  L_1       
     e(  3 -  4) =      5.14035  eV     2   --> E    L_3       
     e(  5 -  5) =      6.96526  eV     1   --> A_1  L_1       
     e(  6 -  6) =      9.12002  eV     1   --> A_1  L_1       
     e(  7 -  8) =      9.13277  eV     2   --> E    L_3       

 **************************************************************************

 **************************************************************************

                    xk=(   0.02500,   0.02500,   0.02500  )

     Band symmetry, C_3v (3m)   point group:

     e(  1 -  1) =     -7.63863  eV     1   --> A_1  L_1       
     e(  2 -  2) =      5.03304  eV     1   --> A_1  L_1       
     e(  3 -  4) =      5.17239  eV     2   --> E    L_3       
     e(  5 -  5) =      6.71829  eV     1   --> A_1  L_1       
     e(  6 -  6) =      9.07739  eV     1   --> A_1  L_1       
     e(  7 -  8) =      9.08329  eV     2   --> E    L_3       

 **************************************************************************

 **************************************************************************

                    xk=(   0.00000,   0.00000,   0.00000  )

     point group T_d (-43m) 
     there are  5 classes
     the character table:

       E     8C3   3C2   6S4   6s_d 
A_1    1.00  1.00  1.00  1.00  1.00
A_2    1.00  1.00  1.00 -1.00 -1.00
E      2.00 -1.00  2.00  0.00  0.00
T_1    3.00  0.00 -1.00  1.00 -1.00
T_2    3.00  0.00 -1.00 -1.00  1.00

     the symmetry operations in each class and the name of the first element:

     E        1
                                                                 
     8C3      5    7    8    6   12    9   10   11
                                                                 
     3C2      2    3    4
                                                                 
     6S4     15   16   20   19   23   24
                                                                 
     6s_d    13   14   17   18   21   22
                                                                 

     Band symmetry, T_d (-43m)  point group:

     e(  1 -  1) =     -7.64520  eV     1   --> A_1  G_1  P_1  
     e(  2 -  4) =      5.18336  eV     3   --> T_2  G_15 P_4  
     e(  5 -  5) =      6.60025  eV     1   --> A_1  G_1  P_1  
     e(  6 -  8) =      9.06634  eV     3   --> T_2  G_15 P_4  

 **************************************************************************

 **************************************************************************

                    xk=(   0.05000,   0.00000,   0.00000  )

     point group C_2v (mm2) 
     there are  4 classes
     the character table:

       E     C2    s_v   s_v' 
A_1    1.00  1.00  1.00  1.00
A_2    1.00  1.00 -1.00 -1.00
B_1    1.00 -1.00  1.00 -1.00
B_2    1.00 -1.00 -1.00  1.00

     the symmetry operations in each class and the name of the first element:

     E        1
                                                                 
     C2       2
                                                                 
     s_v      3
                                                                 
     s_v'     4
                                                                 

     Band symmetry, C_2v (mm2)  point group:

     e(  1 -  1) =     -7.63644  eV     1   --> A_1  D_1  S_1  
     e(  2 -  2) =      5.02366  eV     1   --> A_1  D_1  S_1  
     e(  3 -  4) =      5.14842  eV     2   --> B_1  D_3  S_3  
     e(  3 -  4) =      5.14842  eV     2   --> B_2  D_4  S_4  
     e(  5 -  5) =      6.75894  eV     1   --> A_1  D_1  S_1  
     e(  6 -  6) =      9.02930  eV     1   --> A_1  D_1  S_1  
     e(  7 -  8) =      9.11424  eV     2   --> B_1  D_3  S_3  
     e(  7 -  8) =      9.11424  eV     2   --> B_2  D_4  S_4  

 **************************************************************************

 **************************************************************************

                    xk=(   0.10000,   0.00000,   0.00000  )

     Band symmetry, C_2v (mm2)  point group:

     e(  1 -  1) =     -7.61018  eV     1   --> A_1  D_1  S_1  
     e(  2 -  2) =      4.66535  eV     1   --> A_1  D_1  S_1  
     e(  3 -  4) =      5.04893  eV     2   --> B_1  D_3  S_3  
     e(  3 -  4) =      5.04893  eV     2   --> B_2  D_4  S_4  
     e(  5 -  5) =      7.11210  eV     1   --> A_1  D_1  S_1  
     e(  6 -  6) =      8.92497  eV     1   --> A_1  D_1  S_1  
     e(  7 -  8) =      9.25256  eV     2   --> B_1  D_3  S_3  
     e(  7 -  8) =      9.25256  eV     2   --> B_2  D_4  S_4  

 **************************************************************************

 **************************************************************************

                    xk=(   0.15000,   0.00000,   0.00000  )

     Band symmetry, C_2v (mm2)  point group:

     e(  1 -  1) =     -7.56652  eV     1   --> A_1  D_1  S_1  
     e(  2 -  2) =      4.23636  eV     1   --> A_1  D_1  S_1  
     e(  3 -  4) =      4.89810  eV     2   --> B_1  D_3  S_3  
     e(  3 -  4) =      4.89810  eV     2   --> B_2  D_4  S_4  
     e(  5 -  5) =      7.52383  eV     1   --> A_1  D_1  S_1  
     e(  6 -  6) =      8.77153  eV     1   --> A_1  D_1  S_1  
     e(  7 -  8) =      9.46784  eV     2   --> B_1  D_3  S_3  
     e(  7 -  8) =      9.46784  eV     2   --> B_2  D_4  S_4  

 **************************************************************************

 **************************************************************************

                    xk=(   0.20000,   0.00000,   0.00000  )

     Band symmetry, C_2v (mm2)  point group:

     e(  1 -  1) =     -7.50556  eV     1   --> A_1  D_1  S_1  
     e(  2 -  2) =      3.78365  eV     1   --> A_1  D_1  S_1  
     e(  3 -  4) =      4.71160  eV     2   --> B_1  D_3  S_3  
     e(  3 -  4) =      4.71160  eV     2   --> B_2  D_4  S_4  
     e(  5 -  5) =      7.92314  eV     1   --> A_1  D_1  S_1  
     e(  6 -  6) =      8.60115  eV     1   --> A_1  D_1  S_1  
     e(  7 -  8) =      9.74401  eV     2   --> B_1  D_3  S_3  
     e(  7 -  8) =      9.74401  eV     2   --> B_2  D_4  S_4  

 **************************************************************************

 **************************************************************************

                    xk=(   0.25000,   0.00000,   0.00000  )

     Band symmetry, C_2v (mm2)  point group:

     e(  1 -  1) =     -7.42765  eV     1   --> A_1  D_1  S_1  
     e(  2 -  2) =      3.32376  eV     1   --> A_1  D_1  S_1  
     e(  3 -  4) =      4.50354  eV     2   --> B_1  D_3  S_3  
     e(  3 -  4) =      4.50354  eV     2   --> B_2  D_4  S_4  
     e(  5 -  5) =      8.15884  eV     1   --> A_1  D_1  S_1  
     e(  6 -  6) =      8.54691  eV     1   --> A_1  D_1  S_1  
     e(  7 -  8) =     10.06645  eV     2   --> B_1  D_3  S_3  
     e(  7 -  8) =     10.06645  eV     2   --> B_2  D_4  S_4  

 **************************************************************************

 **************************************************************************

                    xk=(   0.30000,   0.00000,   0.00000  )

     Band symmetry, C_2v (mm2)  point group:

     e(  1 -  1) =     -7.33290  eV     1   --> A_1  D_1  S_1  
     e(  2 -  2) =      2.86415  eV     1   --> A_1  D_1  S_1  
     e(  3 -  4) =      4.28508  eV     2   --> B_1  D_3  S_3  
     e(  3 -  4) =      4.28508  eV     2   --> B_2  D_4  S_4  
     e(  5 -  5) =      8.04082  eV     1   --> A_1  D_1  S_1  
     e(  6 -  6) =      8.77602  eV     1   --> A_1  D_1  S_1  
     e(  7 -  8) =     10.42342  eV     2   --> B_1  D_3  S_3  
     e(  7 -  8) =     10.42342  eV     2   --> B_2  D_4  S_4  

 **************************************************************************

 **************************************************************************

                    xk=(   0.35000,   0.00000,   0.00000  )

     Band symmetry, C_2v (mm2)  point group:

     e(  1 -  1) =     -7.22209  eV     1   --> A_1  D_1  S_1  
     e(  2 -  2) =      2.40821  eV     1   --> A_1  D_1  S_1  
     e(  3 -  4) =      4.06449  eV     2   --> B_1  D_3  S_3  
     e(  3 -  4) =      4.06449  eV     2   --> B_2  D_4  S_4  
     e(  5 -  5) =      7.83643  eV     1   --> A_1  D_1  S_1  
     e(  6 -  6) =      8.98622  eV     1   --> A_1  D_1  S_1  
     e(  7 -  8) =     10.80601  eV     2   --> B_1  D_3  S_3  
     e(  7 -  8) =     10.80601  eV     2   --> B_2  D_4  S_4  

 **************************************************************************

 **************************************************************************

                    xk=(   0.40000,   0.00000,   0.00000  )

     Band symmetry, C_2v (mm2)  point group:

     e(  1 -  1) =     -7.09560  eV     1   --> A_1  D_1  S_1  
     e(  2 -  2) =      1.95841  eV     1   --> A_1  D_1  S_1  
     e(  3 -  4) =      3.84779  eV     2   --> B_1  D_3  S_3  
     e(  3 -  4) =      3.84779  eV     2   --> B_2  D_4  S_4  
     e(  5 -  5) =      7.62660  eV     1   --> A_1  D_1  S_1  
     e(  6 -  6) =      9.06426  eV     1   --> A_1  D_1  S_1  
     e(  7 -  8) =     11.20757  eV     2   --> B_1  D_3  S_3  
     e(  7 -  8) =     11.20757  eV     2   --> B_2  D_4  S_4  

 **************************************************************************

 **************************************************************************

                    xk=(   0.45000,   0.00000,   0.00000  )

     Band symmetry, C_2v (mm2)  point group:

     e(  1 -  1) =     -6.95414  eV     1   --> A_1  D_1  S_1  
     e(  2 -  2) =      1.51660  eV     1   --> A_1  D_1  S_1  
     e(  3 -  4) =      3.63941  eV     2   --> B_1  D_3  S_3  
     e(  3 -  4) =      3.63941  eV     2   --> B_2  D_4  S_4  
     e(  5 -  5) =      7.42570  eV     1   --> A_1  D_1  S_1  
     e(  6 -  6) =      8.99533  eV     1   --> A_1  D_1  S_1  
     e(  7 -  8) =     11.62307  eV     2   --> B_1  D_3  S_3  
     e(  7 -  8) =     11.62307  eV     2   --> B_2  D_4  S_4  

 **************************************************************************

 **************************************************************************

                    xk=(   0.50000,   0.00000,   0.00000  )

     Band symmetry, C_2v (mm2)  point group:

     e(  1 -  1) =     -6.79908  eV     1   --> A_1  D_1  S_1  
     e(  2 -  2) =      1.08441  eV     1   --> A_1  D_1  S_1  
     e(  3 -  4) =      3.44254  eV     2   --> B_1  D_3  S_3  
     e(  3 -  4) =      3.44254  eV     2   --> B_2  D_4  S_4  
     e(  5 -  5) =      7.23964  eV     1   --> A_1  D_1  S_1  
     e(  6 -  6) =      8.81339  eV     1   --> A_1  D_1  S_1  
     e(  7 -  8) =     12.04868  eV     2   --> B_1  D_3  S_3  
     e(  7 -  8) =     12.04868  eV     2   --> B_2  D_4  S_4  

 **************************************************************************

 **************************************************************************

                    xk=(   0.55000,   0.00000,   0.00000  )

     Band symmetry, C_2v (mm2)  point group:

     e(  1 -  1) =     -6.63159  eV     1   --> A_1  D_1  S_1  
     e(  2 -  2) =      0.66412  eV     1   --> A_1  D_1  S_1  
     e(  3 -  4) =      3.25959  eV     2   --> B_1  D_3  S_3  
     e(  3 -  4) =      3.25959  eV     2   --> B_2  D_4  S_4  
     e(  5 -  5) =      7.07189  eV     1   --> A_1  D_1  S_1  
     e(  6 -  6) =      8.56747  eV     1   --> A_1  D_1  S_1  
     e(  7 -  8) =     12.48130  eV     2   --> B_1  D_3  S_3  
     e(  7 -  8) =     12.48130  eV     2   --> B_2  D_4  S_4  

 **************************************************************************

 **************************************************************************

                    xk=(   0.60000,   0.00000,   0.00000  )

     Band symmetry, C_2v (mm2)  point group:

     e(  1 -  1) =     -6.45368  eV     1   --> A_1  D_1  S_1  
     e(  2 -  2) =      0.25800  eV     1   --> A_1  D_1  S_1  
     e(  3 -  4) =      3.09241  eV     2   --> B_1  D_3  S_3  
     e(  3 -  4) =      3.09241  eV     2   --> B_2  D_4  S_4  
     e(  5 -  5) =      6.92480  eV     1   --> A_1  D_1  S_1  
     e(  6 -  6) =      8.29587  eV     1   --> A_1  D_1  S_1  
     e(  7 -  8) =     12.91822  eV     2   --> B_1  D_3  S_3  
     e(  7 -  8) =     12.91822  eV     2   --> B_2  D_4  S_4  

 **************************************************************************

 **************************************************************************

                    xk=(   0.65000,   0.00000,   0.00000  )

     Band symmetry, C_2v (mm2)  point group:

     e(  1 -  1) =     -6.26808  eV     1   --> A_1  D_1  S_1  
     e(  2 -  2) =     -0.13063  eV     1   --> A_1  D_1  S_1  
     e(  3 -  4) =      2.94237  eV     2   --> B_1  D_3  S_3  
     e(  3 -  4) =      2.94237  eV     2   --> B_2  D_4  S_4  
     e(  5 -  5) =      6.80008  eV     1   --> A_1  D_1  S_1  
     e(  6 -  6) =      8.02284  eV     1   --> A_1  D_1  S_1  
     e(  7 -  8) =     13.35667  eV     2   --> B_1  D_3  S_3  
     e(  7 -  8) =     13.35667  eV     2   --> B_2  D_4  S_4  

 **************************************************************************

 **************************************************************************

                    xk=(   0.70000,   0.00000,   0.00000  )

     Band symmetry, C_2v (mm2)  point group:

     e(  1 -  1) =     -6.07847  eV     1   --> A_1  D_1  S_1  
     e(  2 -  2) =     -0.49763  eV     1   --> A_1  D_1  S_1  
     e(  3 -  4) =      2.81056  eV     2   --> B_1  D_3  S_3  
     e(  3 -  4) =      2.81056  eV     2   --> B_2  D_4  S_4  
     e(  5 -  5) =      6.69893  eV     1   --> A_1  D_1  S_1  
     e(  6 -  6) =      7.76290  eV     1   --> A_1  D_1  S_1  
     e(  7 -  8) =     13.79323  eV     2   --> B_1  D_3  S_3  
     e(  7 -  8) =     13.79323  eV     2   --> B_2  D_4  S_4  

 **************************************************************************

 **************************************************************************

                    xk=(   0.75000,   0.00000,   0.00000  )

     Band symmetry, C_2v (mm2)  point group:

     e(  1 -  1) =     -5.89032  eV     1   --> A_1  D_1  S_1  
     e(  2 -  2) =     -0.83721  eV     1   --> A_1  D_1  S_1  
     e(  3 -  4) =      2.69779  eV     2   --> B_1  D_3  S_3  
     e(  3 -  4) =      2.69779  eV     2   --> B_2  D_4  S_4  
     e(  5 -  5) =      6.62218  eV     1   --> A_1  D_1  S_1  
     e(  6 -  6) =      7.52469  eV     1   --> A_1  D_1  S_1  
     e(  7 -  8) =     14.22291  eV     2   --> B_1  D_3  S_3  
     e(  7 -  8) =     14.22291  eV     2   --> B_2  D_4  S_4  

 **************************************************************************

 **************************************************************************

                    xk=(   0.80000,   0.00000,   0.00000  )

     Band symmetry, C_2v (mm2)  point group:

     e(  1 -  1) =     -5.71055  eV     1   --> A_1  D_1  S_1  
     e(  2 -  2) =     -1.14160  eV     1   --> A_1  D_1  S_1  
     e(  3 -  4) =      2.60476  eV     2   --> B_1  D_3  S_3  
     e(  3 -  4) =      2.60476  eV     2   --> B_2  D_4  S_4  
     e(  5 -  5) =      6.57014  eV     1   --> A_1  D_1  S_1  
     e(  6 -  6) =      7.31382  eV     1   --> A_1  D_1  S_1  
     e(  7 -  8) =     14.63750  eV     2   --> B_1  D_3  S_3  
     e(  7 -  8) =     14.63750  eV     2   --> B_2  D_4  S_4  

 **************************************************************************

 **************************************************************************

                    xk=(   0.85000,   0.00000,   0.00000  )

     Band symmetry, C_2v (mm2)  point group:

     e(  1 -  1) =     -5.54883  eV     1   --> A_1  D_1  S_1  
     e(  2 -  2) =     -1.40060  eV     1   --> A_1  D_1  S_1  
     e(  3 -  4) =      2.53194  eV     2   --> B_1  D_3  S_3  
     e(  3 -  4) =      2.53194  eV     2   --> B_2  D_4  S_4  
     e(  5 -  5) =      6.54221  eV     1   --> A_1  D_1  S_1  
     e(  6 -  6) =      7.13454  eV     1   --> A_1  D_1  S_1  
     e(  7 -  8) =     15.02260  eV     2   --> B_1  D_3  S_3  
     e(  7 -  8) =     15.02260  eV     2   --> B_2  D_4  S_4  

 **************************************************************************

 **************************************************************************

                    xk=(   0.90000,   0.00000,   0.00000  )

     Band symmetry, C_2v (mm2)  point group:

     e(  1 -  1) =     -5.41785  eV     1   --> A_1  D_1  S_1  
     e(  2 -  2) =     -1.60139  eV     1   --> A_1  D_1  S_1  
     e(  3 -  4) =      2.47968  eV     2   --> B_1  D_3  S_3  
     e(  3 -  4) =      2.47968  eV     2   --> B_2  D_4  S_4  
     e(  5 -  5) =      6.53580  eV     1   --> A_1  D_1  S_1  
     e(  6 -  6) =      6.99163  eV     1   --> A_1  D_1  S_1  
     e(  7 -  8) =     15.35279  eV     2   --> B_1  D_3  S_3  
     e(  7 -  8) =     15.35279  eV     2   --> B_2  D_4  S_4  

 **************************************************************************

 **************************************************************************

                    xk=(   0.95000,   0.00000,   0.00000  )

     Band symmetry, C_2v (mm2)  point group:

     e(  1 -  1) =     -5.33169  eV     1   --> A_1  D_1  S_1  
     e(  2 -  2) =     -1.72994  eV     1   --> A_1  D_1  S_1  
     e(  3 -  4) =      2.44822  eV     2   --> B_1  D_3  S_3  
     e(  3 -  4) =      2.44822  eV     2   --> B_2  D_4  S_4  
     e(  5 -  5) =      6.54345  eV     1   --> A_1  D_1  S_1  
     e(  6 -  6) =      6.89380  eV     1   --> A_1  D_1  S_1  
     e(  7 -  8) =     15.58657  eV     2   --> B_1  D_3  S_3  
     e(  7 -  8) =     15.58657  eV     2   --> B_2  D_4  S_4  

 **************************************************************************

 **************************************************************************

                    xk=(   1.00000,   0.00000,   0.00000  )

     point group D_2d (-42m)
     there are  5 classes
     the character table:

       E     2S4   C2    2C2'  2s_d 
A_1    1.00  1.00  1.00  1.00  1.00
A_2    1.00  1.00  1.00 -1.00 -1.00
B_1    1.00 -1.00  1.00  1.00 -1.00
B_2    1.00 -1.00  1.00 -1.00  1.00
E      2.00  0.00 -2.00  0.00  0.00

     the symmetry operations in each class and the name of the first element:

     E        1
                                                                 
     2S4      7    8
                                                                 
     C2       4
                                                                 
     2C2'     2    3
                                                                 
     2s_d     5    6
                                                                 

     Band symmetry, D_2d (-42m) point group:

     e(  1 -  1) =     -5.30134  eV     1   --> B_2  X_3  W_2  
     e(  2 -  2) =     -1.77434  eV     1   --> A_1  X_1  W_1  
     e(  3 -  4) =      2.43772  eV     2   --> E    X_5  W_3  
     e(  5 -  5) =      6.54986  eV     1   --> B_2  X_3  W_2  
     e(  6 -  6) =      6.85729  eV     1   --> A_1  X_1  W_1  
     e(  7 -  8) =     15.67314  eV     2   --> E    X_5  W_3  

 **************************************************************************

     BANDS        :      7.09s CPU      1.54s WALL


   This run was terminated on:  23:46:38  31Jul2021            

=------------------------------------------------------------------------------=
   JOB DONE.
=------------------------------------------------------------------------------=
